LAMMPS (2 Aug 2023)

The 'box' command has been removed and will be ignored

Reading data file ...
  triclinic box = (0 0 0) to (37.2546 32.26343 30.418254) with tilt (18.6273 18.6273 10.754477)
WARNING: Triclinic box skew is large. LAMMPS will run inefficiently. (../domain.cpp:220)
  2 by 2 by 2 MPI processor grid
  reading atoms ...
  1248 atoms
  scanning bonds ...
  5 = max bonds/atom
  scanning angles ...
  10 = max angles/atom
  scanning dihedrals ...
  12 = max dihedrals/atom
  scanning impropers ...
  3 = max impropers/atom
  reading bonds ...
  1584 bonds
  reading angles ...
  3072 angles
  reading dihedrals ...
  3072 dihedrals
  reading impropers ...
  1728 impropers
Finding 1-2 1-3 1-4 neighbors ...
  special bond factors lj:    0        0        1       
  special bond factors coul:  0        0        1       
     5 = max # of 1-2 neighbors
     8 = max # of 1-3 neighbors
    13 = max # of special neighbors
  special bonds CPU = 0.001 seconds
  read_data CPU = 0.062 seconds
1248 atoms in group fram
Generated 6 of 6 mixed pair_coeff terms from arithmetic mixing rule
Neighbor list info ...
  update: every = 1 steps, delay = 0 steps, check = yes
  max neighbors/atom: 2000, page size: 100000
  master list distance cutoff = 14.5
  ghost atom cutoff = 14.5
  binsize = 7.25, bins = 11 6 5
  1 neighbor lists, perpetual/occasional/extra = 1 0 0
  (1) pair lj/cut, perpetual
      attributes: half, newton on
      pair build: half/bin/newton/tri
      stencil: half/bin/3d/tri
      bin: standard
Setting up cg style minimization ...
  Unit style    : real
  Current step  : 0
WARNING: Inconsistent image flags (../domain.cpp:815)
Per MPI rank memory allocation (min/avg/max) = 15.96 | 15.96 | 15.96 Mbytes
   Step          Temp          Volume    
         0   0              36561.56     
       225   0              36561.56     
Loop time of 0.369027 on 8 procs for 225 steps with 1248 atoms

99.3% CPU use with 8 MPI tasks x no OpenMP threads

Minimization stats:
  Stopping criterion = linesearch alpha is zero
  Energy initial, next-to-last, final = 
      18099.1209329177   12468.1339388304   12468.1339388304
  Force two-norm initial, final = 3835.473 1.0462036
  Force max component initial, final = 154.08021 0.0791541
  Final line search alpha, max atom move = 7.7418499e-09 6.1279916e-10
  Iterations, force evaluations = 225 499

MPI task timing breakdown:
Section |  min time  |  avg time  |  max time  |%varavg| %total
---------------------------------------------------------------
Pair    | 0.23631    | 0.24448    | 0.25374    |   1.2 | 66.25
Bond    | 0.024748   | 0.025266   | 0.026717   |   0.4 |  6.85
Neigh   | 0.0013462  | 0.0013676  | 0.0014108  |   0.1 |  0.37
Comm    | 0.078949   | 0.089744   | 0.098156   |   2.2 | 24.32
Output  | 0          | 0          | 0          |   0.0 |  0.00
Modify  | 0          | 0          | 0          |   0.0 |  0.00
Other   |            | 0.00817    |            |       |  2.21

Nlocal:            156 ave         157 max         155 min
Histogram: 2 0 0 0 0 4 0 0 0 2
Nghost:           2994 ave        2995 max        2993 min
Histogram: 2 0 0 0 0 4 0 0 0 2
Neighs:        31787.8 ave       31981 max       31584 min
Histogram: 2 0 0 0 0 4 0 0 0 2

Total # of neighbors = 254302
Ave neighs/atom = 203.76763
Ave special neighs/atom = 7.4615385
Neighbor list builds = 1
Dangerous builds = 0
Generated 6 of 6 mixed pair_coeff terms from arithmetic mixing rule
Setting up Verlet run ...
  Unit style    : real
  Current step  : 225
  Time step     : 1
WARNING: Inconsistent image flags (../domain.cpp:815)
Per MPI rank memory allocation (min/avg/max) = 14.84 | 14.84 | 14.84 Mbytes
   Step          Temp          Volume    
       225   100            36561.56     
      1000   103.32436      36561.56     
      2000   97.107747      36561.56     
      3000   100.26849      36561.56     
      4000   102.27371      36561.56     
      5000   100.29521      36561.56     
      6000   100.27015      36561.56     
      7000   100.04306      36561.56     
      8000   95.367888      36561.56     
      9000   100.38023      36561.56     
     10000   100.04188      36561.56     
     11000   101.61247      36561.56     
     12000   100.89044      36561.56     
     13000   99.456072      36561.56     
     14000   100.48055      36561.56     
     15000   102.56379      36561.56     
     16000   102.76709      36561.56     
     17000   97.454015      36561.56     
     18000   96.484305      36561.56     
     19000   98.906339      36561.56     
     20000   102.84672      36561.56     
     21000   98.4235        36561.56     
     22000   104.08323      36561.56     
     23000   101.47053      36561.56     
     24000   105.74244      36561.56     
     25000   99.350166      36561.56     
     26000   95.718504      36561.56     
     27000   98.34402       36561.56     
     28000   99.077024      36561.56     
     29000   97.837651      36561.56     
     30000   101.17177      36561.56     
     31000   95.92291       36561.56     
     32000   99.095294      36561.56     
     33000   104.16965      36561.56     
     34000   101.23086      36561.56     
     35000   101.23407      36561.56     
     36000   95.775315      36561.56     
     37000   101.60539      36561.56     
     38000   99.802533      36561.56     
     39000   98.31739       36561.56     
     40000   100.96255      36561.56     
     41000   97.270933      36561.56     
     42000   99.852088      36561.56     
     43000   99.048974      36561.56     
     44000   101.82102      36561.56     
     45000   99.460907      36561.56     
     46000   102.32384      36561.56     
     47000   98.639671      36561.56     
     48000   99.309268      36561.56     
     49000   100.36464      36561.56     
     50000   103.72263      36561.56     
     51000   94.683822      36561.56     
     52000   101.40602      36561.56     
     53000   98.934099      36561.56     
     54000   102.70494      36561.56     
     55000   98.927845      36561.56     
     56000   93.563119      36561.56     
     57000   100.1318       36561.56     
     58000   98.671157      36561.56     
     59000   102.3497       36561.56     
     60000   102.72914      36561.56     
     61000   102.29556      36561.56     
     62000   101.75428      36561.56     
     63000   102.97664      36561.56     
     64000   100.57843      36561.56     
     65000   100.26367      36561.56     
     66000   104.35823      36561.56     
     67000   100.81854      36561.56     
     68000   98.631113      36561.56     
     69000   101.58903      36561.56     
     70000   99.12538       36561.56     
     71000   101.44634      36561.56     
     72000   99.106748      36561.56     
     73000   99.346607      36561.56     
     74000   100.44389      36561.56     
     75000   101.28032      36561.56     
     76000   104.92803      36561.56     
     77000   97.507681      36561.56     
     78000   101.33566      36561.56     
     79000   98.789193      36561.56     
     80000   99.968169      36561.56     
     81000   98.811034      36561.56     
     82000   102.04668      36561.56     
     83000   101.18258      36561.56     
     84000   102.22268      36561.56     
     85000   95.969241      36561.56     
     86000   101.24076      36561.56     
     87000   102.16601      36561.56     
     88000   97.998621      36561.56     
     89000   107.83216      36561.56     
     90000   101.18177      36561.56     
     91000   98.260537      36561.56     
     92000   101.05839      36561.56     
     93000   97.626068      36561.56     
     94000   100.46017      36561.56     
     95000   103.31749      36561.56     
     96000   95.596694      36561.56     
     97000   100.92934      36561.56     
     98000   99.768323      36561.56     
     99000   98.335885      36561.56     
    100000   105.47726      36561.56     
    101000   92.89102       36561.56     
    102000   97.467275      36561.56     
    103000   94.146279      36561.56     
    104000   101.09519      36561.56     
    105000   104.13316      36561.56     
    106000   101.11978      36561.56     
    107000   104.88385      36561.56     
    108000   97.714513      36561.56     
    109000   98.98359       36561.56     
    110000   95.346962      36561.56     
    111000   100.41215      36561.56     
    112000   95.064386      36561.56     
    113000   101.30796      36561.56     
    114000   99.699208      36561.56     
    115000   100.65435      36561.56     
    116000   101.83833      36561.56     
    117000   99.120652      36561.56     
    118000   101.51194      36561.56     
    119000   102.61505      36561.56     
    120000   102.6604       36561.56     
    121000   101.5583       36561.56     
    122000   97.212655      36561.56     
    123000   99.312007      36561.56     
    124000   96.202536      36561.56     
    125000   100.25198      36561.56     
    126000   97.70806       36561.56     
    127000   101.14775      36561.56     
    128000   104.69721      36561.56     
    129000   97.512212      36561.56     
    130000   100.16957      36561.56     
    131000   102.81777      36561.56     
    132000   99.015738      36561.56     
    133000   99.181616      36561.56     
    134000   96.529397      36561.56     
    135000   100.23055      36561.56     
    136000   104.07879      36561.56     
    137000   99.997521      36561.56     
    138000   100.71317      36561.56     
    139000   101.09903      36561.56     
    140000   100.41777      36561.56     
    141000   101.55436      36561.56     
    142000   101.14729      36561.56     
    143000   101.41167      36561.56     
    144000   104.12726      36561.56     
    145000   98.925514      36561.56     
    146000   96.32542       36561.56     
    147000   98.663305      36561.56     
    148000   101.27757      36561.56     
    149000   98.705142      36561.56     
    150000   100.65485      36561.56     
    151000   97.710521      36561.56     
    152000   102.12659      36561.56     
    153000   100.29445      36561.56     
    154000   99.03399       36561.56     
    155000   97.172838      36561.56     
    156000   105.98381      36561.56     
    157000   101.09731      36561.56     
    158000   98.95816       36561.56     
    159000   100.63113      36561.56     
    160000   100.83739      36561.56     
    161000   100.85632      36561.56     
    162000   100.18127      36561.56     
    163000   103.82708      36561.56     
    164000   98.188654      36561.56     
    165000   100.64269      36561.56     
    166000   97.22016       36561.56     
    167000   102.13042      36561.56     
    168000   96.565239      36561.56     
    169000   101.26726      36561.56     
    170000   100.76696      36561.56     
    171000   101.85882      36561.56     
    172000   96.782386      36561.56     
    173000   99.580426      36561.56     
    174000   100.13817      36561.56     
    175000   102.00509      36561.56     
    176000   100.1169       36561.56     
    177000   104.35071      36561.56     
    178000   101.50638      36561.56     
    179000   102.06346      36561.56     
    180000   100.65819      36561.56     
    181000   100.16201      36561.56     
    182000   102.98595      36561.56     
    183000   97.600636      36561.56     
    184000   98.75434       36561.56     
    185000   99.56093       36561.56     
    186000   105.23439      36561.56     
    187000   102.70058      36561.56     
    188000   96.068523      36561.56     
    189000   99.369562      36561.56     
    190000   98.813606      36561.56     
    191000   100.559        36561.56     
    192000   100.55666      36561.56     
    193000   99.90948       36561.56     
    194000   100.52055      36561.56     
    195000   100.54189      36561.56     
    196000   100.09899      36561.56     
    197000   100.06868      36561.56     
    198000   97.96789       36561.56     
    199000   100.3442       36561.56     
    200000   101.19145      36561.56     
    200225   103.19892      36561.56     
Loop time of 106.046 on 8 procs for 200000 steps with 1248 atoms

Performance: 162.948 ns/day, 0.147 hours/ns, 1885.973 timesteps/s, 2.354 Matom-step/s
99.7% CPU use with 8 MPI tasks x no OpenMP threads

MPI task timing breakdown:
Section |  min time  |  avg time  |  max time  |%varavg| %total
---------------------------------------------------------------
Pair    | 62.123     | 64.122     | 67.99      |  24.1 | 60.47
Bond    | 8.2976     | 8.398      | 8.6502     |   4.0 |  7.92
Neigh   | 0          | 0          | 0          |   0.0 |  0.00
Comm    | 27.366     | 30.804     | 33.036     |  36.2 | 29.05
Output  | 0.0018055  | 0.0021031  | 0.0037097  |   1.3 |  0.00
Modify  | 1.1261     | 1.8559     | 2.5779     |  50.9 |  1.75
Other   |            | 0.8643     |            |       |  0.82

Nlocal:            156 ave         159 max         154 min
Histogram: 4 0 0 0 0 0 2 0 0 2
Nghost:           3156 ave        3158 max        3153 min
Histogram: 2 0 0 0 2 0 0 0 0 4
Neighs:        32016.2 ave       32606 max       31625 min
Histogram: 4 0 0 0 0 2 0 0 0 2

Total # of neighbors = 256130
Ave neighs/atom = 205.23237
Ave special neighs/atom = 7.4615385
Neighbor list builds = 0
Dangerous builds = 0
Generated 6 of 6 mixed pair_coeff terms from arithmetic mixing rule
Setting up Verlet run ...
  Unit style    : real
  Current step  : 200225
  Time step     : 1
WARNING: Inconsistent image flags (../domain.cpp:815)
Per MPI rank memory allocation (min/avg/max) = 14.86 | 14.86 | 14.86 Mbytes
   Step          Temp          Volume    
    200225   103.19892      36561.56     
    201000   102.36557      34751.797    
    202000   104.76715      34614.365    
    203000   98.090588      34722.318    
    204000   99.330172      34758.41     
    205000   100.00161      34617.687    
    206000   101.13008      34682.19     
    207000   99.413166      34604.854    
    208000   98.314127      34740.536    
    209000   100.22542      34728.434    
    210000   99.330679      34693.79     
    211000   103.72752      34614.33     
    212000   99.745411      34627.286    
    213000   99.072998      34714.154    
    214000   96.924118      34683.106    
    215000   98.678441      34673.835    
    216000   95.824815      34563.837    
    217000   96.988486      34572.474    
    218000   99.583166      34614.435    
    219000   96.054587      34620.134    
    220000   100.62503      34524.63     
    221000   99.478679      34559.659    
    222000   99.891862      34554.684    
    223000   100.50042      34614.548    
    224000   99.253445      34590.008    
    225000   101.52807      34661.777    
    226000   100.5126       34622.959    
    227000   99.909453      34685.842    
    228000   98.244241      34676.496    
    229000   97.089996      34650.074    
    230000   98.477954      34634.51     
    231000   102.05475      34699.087    
    232000   100.75892      34624.868    
    233000   98.784894      34672.059    
    234000   101.69202      34645.809    
    235000   98.320926      34693.354    
    236000   103.29886      34647.598    
    237000   101.52531      34700.388    
    238000   96.474453      34581.615    
    239000   100.88785      34620.306    
    240000   96.652912      34683.285    
    241000   101.70846      34580.299    
    242000   98.586477      34657.593    
    243000   99.939831      34543.714    
    244000   98.940609      34561.754    
    245000   101.74447      34577.506    
    246000   101.61224      34577.087    
    247000   98.629525      34610.038    
    248000   104.78777      34572.688    
    249000   100.12257      34633.905    
    250000   98.204136      34645.658    
    251000   101.96375      34660.831    
    252000   97.409089      34713.445    
    253000   99.316338      34592.495    
    254000   96.748122      34706.027    
    255000   95.711241      34645.829    
    256000   101.80586      34725.031    
    257000   99.402465      34665.422    
    258000   101.15946      34723.407    
    259000   103.95528      34595.999    
    260000   100.96752      34724.593    
    261000   102.70714      34670.27     
    262000   101.45526      34741.498    
    263000   100.04096      34632.727    
    264000   101.91761      34669.825    
    265000   99.675781      34600.308    
    266000   100.53501      34660.785    
    267000   98.118109      34608.081    
    268000   102.55581      34642.07     
    269000   99.772344      34561.861    
    270000   99.602138      34617.513    
    271000   100.75341      34597.06     
    272000   101.26739      34645.458    
    273000   103.8208       34623.545    
    274000   100.26239      34640.465    
    275000   98.918592      34592.512    
    276000   102.55044      34686.665    
    277000   103.8691       34614.523    
    278000   99.839872      34719.484    
    279000   96.933891      34669.891    
    280000   103.00827      34742.367    
    281000   95.897633      34626.869    
    282000   101.5328       34679.552    
    283000   98.996965      34659.428    
    284000   102.09242      34681.775    
    285000   104.16202      34721.242    
    286000   100.1743       34702.717    
    287000   96.972304      34598.918    
    288000   102.28193      34649.642    
    289000   96.629417      34595.365    
    290000   100.08853      34598.983    
    291000   99.356697      34626.265    
    292000   98.44027       34583.442    
    293000   98.049351      34550.478    
    294000   96.972906      34569.129    
    295000   99.407412      34632.869    
    296000   100.87534      34643.348    
    297000   107.11584      34621.688    
    298000   102.82358      34598.595    
    299000   92.972162      34588.485    
    300000   101.06565      34642.061    
    301000   98.250542      34700.5      
    302000   98.855569      34685.993    
    303000   103.51001      34626.77     
    304000   95.729547      34651.47     
    305000   101.64535      34629.128    
    306000   101.13669      34760.096    
    307000   101.99788      34677.852    
    308000   99.276626      34733.291    
    309000   100.61003      34599.371    
    310000   100.4249       34647.732    
    311000   99.252347      34627.319    
    312000   98.648418      34729.255    
    313000   102.15485      34660.927    
    314000   100.42465      34629.023    
    315000   97.312105      34555.205    
    316000   102.20998      34599.893    
    317000   98.460005      34581.107    
    318000   98.506967      34593.619    
    319000   101.79431      34616.134    
    320000   103.40107      34601.553    
    321000   99.147122      34623.59     
    322000   99.575871      34663.427    
    323000   101.47241      34673.165    
    324000   96.453453      34636.671    
    325000   101.87331      34623.517    
    326000   101.23974      34651.881    
    327000   100.74163      34665.229    
    328000   105.00711      34640.353    
    329000   97.558714      34700.622    
    330000   102.85594      34605.105    
    331000   95.399906      34727.774    
    332000   98.716175      34562.215    
    333000   98.288419      34705.184    
    334000   101.95982      34571.673    
    335000   100.10106      34650.035    
    336000   98.798373      34649.718    
    337000   102.53285      34620.964    
    338000   98.271608      34532.535    
    339000   98.302197      34677.085    
    340000   96.466199      34530.788    
    341000   104.23667      34644.66     
    342000   98.488227      34631.524    
    343000   101.41523      34626.568    
    344000   97.303551      34601.282    
    345000   99.463023      34572.464    
    346000   100.18548      34606.599    
    347000   102.97037      34691.548    
    348000   103.22432      34653.548    
    349000   100.52995      34619.051    
    350000   100.26888      34625.114    
    351000   100.15867      34671.978    
    352000   99.045092      34693.65     
    353000   100.4435       34689.705    
    354000   99.602239      34698.649    
    355000   96.96142       34591.479    
    356000   99.723825      34639.842    
    357000   99.253889      34633.744    
    358000   100.93005      34636.745    
    359000   97.50036       34687.509    
    360000   101.85092      34620.298    
    361000   102.49798      34576.802    
    362000   98.3808        34627.7      
    363000   102.36645      34622.608    
    364000   99.600523      34536.826    
    365000   96.906039      34644.647    
    366000   98.563871      34558.178    
    367000   103.05312      34576.45     
    368000   100.22542      34613.462    
    369000   102.09745      34641.008    
    370000   101.64186      34605.068    
    371000   100.1391       34643.617    
    372000   100.2595       34623.127    
    373000   96.00163       34568.45     
    374000   102.80477      34669.901    
    375000   96.176089      34557.853    
    376000   99.744001      34723.566    
    377000   101.29473      34589.808    
    378000   98.912298      34705.994    
    379000   99.554473      34660.82     
    380000   104.32372      34670.693    
    381000   97.991138      34648.135    
    382000   98.956304      34647.125    
    383000   102.08737      34662.127    
    384000   102.58038      34645.479    
    385000   99.881857      34617.173    
    386000   100.7426       34671.271    
    387000   101.57128      34577.833    
    388000   100.03298      34656.811    
    389000   100.75314      34612.146    
    390000   100.24875      34559.164    
    391000   99.759009      34655.406    
    392000   102.57452      34677.771    
    393000   102.62835      34582.944    
    394000   97.232842      34659.468    
    395000   100.23271      34674.53     
    396000   102.98588      34581.076    
    397000   100.06403      34704.126    
    398000   103.37219      34617.379    
    399000   99.281899      34667.979    
    400000   96.708789      34644.261    
    400225   100.04196      34642.49     
Loop time of 124.094 on 8 procs for 200000 steps with 1248 atoms

Performance: 139.249 ns/day, 0.172 hours/ns, 1611.677 timesteps/s, 2.011 Matom-step/s
99.7% CPU use with 8 MPI tasks x no OpenMP threads

MPI task timing breakdown:
Section |  min time  |  avg time  |  max time  |%varavg| %total
---------------------------------------------------------------
Pair    | 69.992     | 72.858     | 77.215     |  25.0 | 58.71
Bond    | 10.745     | 10.899     | 11.044     |   2.8 |  8.78
Neigh   | 0.71693    | 0.72693    | 0.74605    |   1.3 |  0.59
Comm    | 29.226     | 33.812     | 36.923     |  38.4 | 27.25
Output  | 0.0017907  | 0.0020577  | 0.0031831  |   1.0 |  0.00
Modify  | 4.7626     | 4.9051     | 5.0355     |   5.0 |  3.95
Other   |            | 0.8915     |            |       |  0.72

Nlocal:            156 ave         158 max         153 min
Histogram: 1 0 1 0 1 0 1 0 2 2
Nghost:        3460.12 ave        3479 max        3444 min
Histogram: 1 0 2 1 1 1 0 0 1 1
Neighs:          34231 ave       34697 max       33557 min
Histogram: 1 0 1 1 0 1 0 1 1 2

Total # of neighbors = 273848
Ave neighs/atom = 219.42949
Ave special neighs/atom = 7.4615385
Neighbor list builds = 522
Dangerous builds = 0
Generated 6 of 6 mixed pair_coeff terms from arithmetic mixing rule
Setting up Verlet run ...
  Unit style    : real
  Current step  : 0
  Time step     : 1
WARNING: Inconsistent image flags (../domain.cpp:815)
Per MPI rank memory allocation (min/avg/max) = 14.86 | 14.86 | 14.86 Mbytes
   Step          Temp          Volume    
         0   100.04196      34642.49     
      1000   100.24731      34624.716    
      2000   100.32566      34622.999    
      3000   100.24038      34634.06     
      4000   106.48129      34641.96     
      5000   98.703402      34681.46     
      6000   99.619965      34636.098    
      7000   101.57661      34638.331    
      8000   97.435087      34622.098    
      9000   101.49035      34600.671    
     10000   101.62508      34619.85     
     11000   101.13242      34648.807    
     12000   95.538063      34619.528    
     13000   100.57362      34693.671    
     14000   105.83358      34651.217    
     15000   102.14867      34642.413    
     16000   99.866421      34620.21     
     17000   102.20368      34701.637    
     18000   101.03334      34605.72     
     19000   99.806282      34617.837    
     20000   98.527392      34608.495    
     21000   102.29217      34623.638    
     22000   95.591063      34663.208    
     23000   95.309873      34605.033    
     24000   94.961233      34515.104    
     25000   102.8844       34640.066    
     26000   98.57108       34587.029    
     27000   104.14969      34714.891    
     28000   94.897545      34638.326    
     29000   99.524115      34702.645    
     30000   98.642258      34613.026    
     31000   98.671789      34675.716    
     32000   99.434771      34646.109    
     33000   102.70138      34610.644    
     34000   107.44007      34652.078    
     35000   100.24181      34624.035    
     36000   97.999524      34623.427    
     37000   96.938652      34692.933    
     38000   100.62116      34636.619    
     39000   102.25542      34638.257    
     40000   99.613566      34648.248    
     41000   101.75408      34642.408    
     42000   101.3851       34604.169    
     43000   96.868886      34670.814    
     44000   97.55245       34580.258    
     45000   102.2859       34592.025    
     46000   102.85301      34678.547    
     47000   96.811634      34554.114    
     48000   104.27984      34710.11     
     49000   99.118782      34582.211    
     50000   100.86758      34652.116    
     51000   99.635824      34580.019    
     52000   104.1709       34646.85     
     53000   100.66129      34569.633    
     54000   100.59302      34636.292    
     55000   98.552703      34664.071    
     56000   105.5291       34676.628    
     57000   99.164065      34618.459    
     58000   103.06749      34751.948    
     59000   103.65076      34551.6      
     60000   102.51979      34719.357    
     61000   102.6878       34623.668    
     62000   98.940076      34613.62     
     63000   103.19108      34657.705    
     64000   100.2703       34638.78     
     65000   100.08238      34619.995    
     66000   98.821654      34609.975    
     67000   100.72772      34679.325    
     68000   102.79335      34541.738    
     69000   103.61137      34692.108    
     70000   96.708033      34594.382    
     71000   99.374901      34537.714    
     72000   98.455401      34656.373    
     73000   101.86103      34599.294    
     74000   96.720448      34652.01     
     75000   102.87555      34616.55     
     76000   97.904739      34539.823    
     77000   97.22104       34669.599    
     78000   97.348788      34587.59     
     79000   99.911936      34646.877    
     80000   101.22165      34606.622    
     81000   100.30933      34684.571    
     82000   98.197563      34623.921    
     83000   100.95337      34661.974    
     84000   100.85647      34661.673    
     85000   100.225        34609.751    
     86000   101.47765      34648.784    
     87000   101.37302      34719.027    
     88000   99.063758      34583.16     
     89000   99.115321      34698.668    
     90000   96.661252      34591.505    
     91000   101.02185      34619.48     
     92000   100.80198      34664.875    
     93000   95.006865      34665.557    
     94000   101.13148      34588.174    
     95000   102.74047      34728.511    
     96000   99.15428       34584.873    
     97000   99.99129       34643.867    
     98000   97.988141      34653.009    
     99000   96.300291      34601.772    
    100000   102.40813      34618.993    
    101000   100.14921      34621.668    
    102000   100.94364      34659.588    
    103000   103.03575      34602.923    
    104000   97.906998      34673.401    
    105000   100.84114      34700.83     
    106000   91.86841       34686.637    
    107000   98.826428      34693.816    
    108000   96.905657      34617.836    
    109000   101.02058      34627.215    
    110000   99.069514      34743.479    
    111000   102.74717      34590.003    
    112000   101.47152      34714.811    
    113000   99.849341      34636.837    
    114000   100.93002      34596.775    
    115000   100.56557      34664.18     
    116000   101.21639      34579.952    
    117000   105.20063      34658.219    
    118000   96.60234       34646.398    
    119000   99.321197      34655.473    
    120000   98.336075      34648.218    
    121000   99.410848      34611.745    
    122000   100.87267      34588.835    
    123000   103.29519      34635.995    
    124000   99.678006      34606.871    
    125000   97.928659      34676.855    
    126000   102.54192      34568.756    
    127000   96.807153      34711.156    
    128000   103.20408      34594.869    
    129000   99.549322      34663.321    
    130000   102.52441      34634.074    
    131000   100.03778      34624.14     
    132000   101.23801      34633.014    
    133000   100.19177      34697.894    
    134000   98.649837      34543.499    
    135000   97.806555      34647.331    
    136000   99.15362       34609.154    
    137000   95.902542      34620.52     
    138000   100.53713      34575.271    
    139000   99.985054      34650.516    
    140000   103.55205      34634.621    
    141000   99.570417      34691.262    
    142000   102.638        34588.717    
    143000   98.181821      34624.964    
    144000   99.550706      34646.279    
    145000   102.37516      34644.46     
    146000   100.80007      34666.529    
    147000   102.13826      34659.056    
    148000   97.852158      34627.361    
    149000   102.30114      34629.99     
    150000   99.883701      34670.588    
    151000   99.347879      34636.128    
    152000   98.931954      34621.177    
    153000   98.848107      34643.882    
    154000   99.369208      34669.478    
    155000   104.44848      34589.258    
    156000   95.615809      34741.029    
    157000   98.643394      34518.55     
    158000   97.414071      34629.408    
    159000   101.02708      34619.898    
    160000   101.10336      34650.739    
    161000   102.0787       34580.446    
    162000   102.06138      34695.28     
    163000   100.85601      34510.102    
    164000   104.6485       34675.406    
    165000   102.42696      34620.26     
    166000   99.432387      34636.773    
    167000   98.923972      34673.324    
    168000   101.25404      34645.258    
    169000   101.41158      34640.062    
    170000   98.08642       34647.829    
    171000   99.880793      34718.582    
    172000   96.996996      34594.967    
    173000   99.976209      34679.865    
    174000   104.87065      34626.206    
    175000   98.248206      34668.581    
    176000   104.60024      34602.853    
    177000   100.19644      34618.916    
    178000   101.30812      34491.763    
    179000   102.83506      34681.963    
    180000   100.46679      34545.852    
    181000   98.400968      34719.86     
    182000   102.04794      34563.576    
    183000   99.987146      34618.819    
    184000   98.859944      34571.047    
    185000   98.564509      34634.496    
    186000   95.346188      34655.696    
    187000   102.66947      34593.695    
    188000   99.89093       34622.57     
    189000   102.58509      34620.001    
    190000   102.1787       34682.168    
    191000   97.544024      34647.922    
    192000   100.66392      34615.411    
    193000   98.310231      34719.186    
    194000   100.31446      34639.601    
    195000   100.88102      34652.942    
    196000   99.585374      34664.976    
    197000   101.25728      34572.966    
    198000   100.07796      34692.166    
    199000   99.906033      34606.28     
    200000   100.07295      34662.374    
    201000   97.706195      34614.26     
    202000   103.45096      34588.39     
    203000   101.68031      34679.062    
    204000   101.06172      34566.476    
    205000   97.321379      34710.595    
    206000   104.49564      34580.723    
    207000   100.08608      34586.694    
    208000   99.843259      34635.419    
    209000   99.471592      34621.936    
    210000   98.304498      34655.295    
    211000   100.3114       34637.215    
    212000   98.699117      34646.931    
    213000   99.272419      34634.183    
    214000   99.50938       34682.166    
    215000   97.164098      34713.066    
    216000   100.73194      34709.696    
    217000   101.14303      34645.335    
    218000   97.332559      34712.845    
    219000   97.882344      34615.24     
    220000   99.673213      34694.909    
    221000   104.88818      34636.783    
    222000   100.03158      34640.512    
    223000   101.08631      34625.459    
    224000   97.517143      34661.071    
    225000   96.342699      34590.17     
    226000   98.21744       34692.385    
    227000   98.909612      34612.068    
    228000   98.429183      34650.991    
    229000   97.201823      34567.099    
    230000   100.89875      34649.552    
    231000   99.723888      34585.444    
    232000   97.726575      34646.793    
    233000   101.74644      34649.035    
    234000   98.445812      34610.046    
    235000   99.490571      34629.869    
    236000   97.815478      34614.343    
    237000   100.42508      34632.886    
    238000   99.584888      34643.2      
    239000   104.07573      34708.23     
    240000   101.39028      34633.776    
    241000   102.59806      34631.883    
    242000   97.270866      34607.948    
    243000   104.01758      34669.259    
    244000   101.91457      34600.934    
    245000   104.96686      34697.176    
    246000   98.937964      34605.181    
    247000   103.83095      34642.428    
    248000   101.09282      34664.785    
    249000   95.459617      34631.766    
    250000   97.846021      34637.135    
    251000   102.71754      34624.403    
    252000   97.393218      34632.278    
    253000   97.047885      34635.127    
    254000   100.05305      34615.068    
    255000   99.756018      34578.962    
    256000   101.18075      34538.404    
    257000   99.94564       34662.876    
    258000   100.09997      34640.748    
    259000   95.873682      34633.656    
    260000   100.91894      34652.683    
    261000   99.694987      34641.826    
    262000   101.7341       34623.682    
    263000   100.71715      34688.36     
    264000   103.97946      34619.855    
    265000   100.85208      34635.532    
    266000   96.582734      34659.999    
    267000   101.34205      34646.075    
    268000   98.489888      34666.401    
    269000   103.98467      34668.589    
    270000   98.946359      34602.56     
    271000   99.426344      34650.38     
    272000   94.700345      34686.681    
    273000   100.67429      34630.486    
    274000   99.926791      34621.219    
    275000   106.02427      34601.811    
    276000   101.49191      34605.184    
    277000   99.357768      34660.346    
    278000   101.1675       34626.747    
    279000   100.47668      34579.514    
    280000   103.52679      34611.897    
    281000   101.84116      34605.634    
    282000   97.790657      34627.097    
    283000   96.096781      34661.487    
    284000   102.4567       34607.661    
    285000   99.632717      34610.665    
    286000   101.04224      34644.6      
    287000   101.87699      34615.064    
    288000   100.25795      34619.117    
    289000   104.36273      34736.96     
    290000   98.27536       34568.107    
    291000   104.40447      34659.578    
    292000   100.66197      34648.326    
    293000   102.17341      34684.25     
    294000   99.53009       34678.899    
    295000   98.802538      34657.963    
    296000   97.885199      34661.504    
    297000   98.725051      34662.129    
    298000   96.538849      34696.712    
    299000   100.10449      34653.431    
    300000   100.49733      34610.44     
    301000   100.66893      34680.421    
    302000   102.87042      34596.555    
    303000   99.596995      34689.765    
    304000   103.11022      34618.305    
    305000   95.113543      34620.776    
    306000   100.14016      34632.282    
    307000   100.47669      34689.865    
    308000   95.688021      34642.742    
    309000   100.56537      34649.37     
    310000   98.924941      34662.765    
    311000   96.378414      34550.837    
    312000   99.490302      34733.724    
    313000   99.969172      34603.073    
    314000   98.701989      34634.284    
    315000   98.520908      34682.363    
    316000   98.037187      34588.369    
    317000   99.952418      34656.09     
    318000   105.48667      34678.328    
    319000   98.155138      34626.113    
    320000   104.0937       34655.311    
    321000   98.256396      34634.789    
    322000   95.027036      34640.642    
    323000   99.909438      34637.762    
    324000   101.63417      34640.8      
    325000   97.796312      34685.438    
    326000   103.54532      34536.423    
    327000   99.793267      34686.87     
    328000   101.92736      34587.918    
    329000   100.82413      34642.672    
    330000   98.710451      34665.121    
    331000   104.3339       34601.287    
    332000   99.402645      34642.077    
    333000   98.206696      34650.723    
    334000   102.69557      34624.87     
    335000   99.521109      34602.318    
    336000   102.1777       34599.062    
    337000   98.177208      34584.971    
    338000   100.72709      34676.642    
    339000   96.337922      34596.081    
    340000   101.57685      34721.194    
    341000   99.891598      34642.739    
    342000   100.47786      34655.627    
    343000   100.48251      34667.316    
    344000   102.27601      34589.787    
    345000   104.33955      34685.218    
    346000   98.978357      34571.986    
    347000   96.509524      34682.404    
    348000   99.812362      34591.809    
    349000   100.33723      34681.136    
    350000   96.863772      34647.244    
    351000   97.675498      34659.912    
    352000   98.687594      34659.873    
    353000   96.05154       34652.563    
    354000   99.541064      34617.824    
    355000   97.652076      34654.914    
    356000   95.942858      34545.993    
    357000   102.04851      34642.317    
    358000   97.763554      34603.917    
    359000   100.93048      34632.518    
    360000   92.755127      34583.612    
    361000   99.47336       34560.599    
    362000   98.996317      34601.883    
    363000   102.15322      34656.971    
    364000   100.43301      34653.71     
    365000   97.193839      34600.296    
    366000   98.38236       34638.863    
    367000   99.058206      34620.831    
    368000   99.555463      34661.57     
    369000   100.34968      34620.093    
    370000   101.3805       34705.226    
    371000   102.16451      34589.733    
    372000   94.432668      34644.359    
    373000   97.496714      34665.182    
    374000   99.017023      34627.489    
    375000   103.77261      34661.855    
    376000   104.13089      34624.654    
    377000   102.87055      34580.177    
    378000   96.771567      34713.322    
    379000   102.15648      34624.674    
    380000   100.0703       34749.89     
    381000   101.70279      34528.065    
    382000   100.76296      34707.532    
    383000   102.84374      34544.814    
    384000   98.088326      34683.28     
    385000   101.93279      34642.649    
    386000   102.86477      34639.786    
    387000   99.698505      34638.976    
    388000   101.2786       34591.984    
    389000   95.985696      34553.091    
    390000   95.644469      34726.083    
    391000   100.71393      34590.05     
    392000   93.74556       34640.47     
    393000   102.91552      34593.745    
    394000   98.457643      34635.114    
    395000   101.995        34645.693    
    396000   101.69629      34678.127    
    397000   94.971946      34640.13     
    398000   98.552286      34683.769    
    399000   99.307416      34641.305    
    400000   98.77208       34652.547    
    401000   98.800864      34704.308    
    402000   102.0811       34593.823    
    403000   100.56183      34693.487    
    404000   100.88067      34592.065    
    405000   98.511479      34596.758    
    406000   97.620478      34630.136    
    407000   95.355683      34622.413    
    408000   100.01968      34648.995    
    409000   102.3768       34605.411    
    410000   94.707458      34608.888    
    411000   99.065951      34716.294    
    412000   98.914173      34573.317    
    413000   99.1222        34671.568    
    414000   99.646664      34546.207    
    415000   100.55834      34700.133    
    416000   98.71862       34579.323    
    417000   100.37848      34642.974    
    418000   96.452825      34627.654    
    419000   99.359345      34635.752    
    420000   100.01269      34646.989    
    421000   101.97314      34683.236    
    422000   97.547252      34594.694    
    423000   97.402629      34655.19     
    424000   102.39676      34604.923    
    425000   97.226474      34661.284    
    426000   101.00291      34658.478    
    427000   102.0819       34644.806    
    428000   99.421349      34591.986    
    429000   101.51858      34589.281    
    430000   102.47016      34724.126    
    431000   99.207434      34570.876    
    432000   99.14099       34665.064    
    433000   100.09649      34658.057    
    434000   96.089625      34632.152    
    435000   100.33859      34646.885    
    436000   99.064113      34711.603    
    437000   97.409917      34572.139    
    438000   100.50283      34725.454    
    439000   100.3432       34581.12     
    440000   100.0657       34585.987    
    441000   98.612198      34639.482    
    442000   103.40954      34632.361    
    443000   99.269634      34548.435    
    444000   102.193        34708.277    
    445000   100.45696      34614.141    
    446000   97.26967       34573.855    
    447000   97.38329       34647.333    
    448000   96.461554      34623.336    
    449000   99.957636      34551.392    
    450000   94.836378      34686.641    
    451000   104.04969      34552.634    
    452000   95.509065      34624.609    
    453000   101.26971      34700.831    
    454000   96.118956      34625.428    
    455000   97.875265      34599.307    
    456000   100.67562      34676.658    
    457000   100.08861      34570.036    
    458000   98.837276      34653.153    
    459000   104.4717       34686.535    
    460000   96.391998      34596.251    
    461000   102.61587      34633.719    
    462000   103.85966      34647.507    
    463000   98.818839      34644.245    
    464000   99.118684      34625.055    
    465000   102.99697      34724.444    
    466000   94.88829       34541.62     
    467000   101.36742      34712.216    
    468000   100.04304      34604.614    
    469000   101.42749      34599.484    
    470000   104.9085       34666.369    
    471000   101.24805      34587.541    
    472000   103.80347      34614.048    
    473000   101.99528      34626.015    
    474000   95.891767      34630.319    
    475000   102.52227      34591.127    
    476000   101.05978      34613.667    
    477000   103.03757      34615.066    
    478000   98.730711      34606.573    
    479000   103.37204      34657.395    
    480000   100.02138      34621.522    
    481000   102.34446      34560.657    
    482000   98.970456      34700.888    
    483000   99.524982      34563.65     
    484000   102.37022      34715.089    
    485000   100.13326      34591.613    
    486000   96.651668      34595.97     
    487000   98.847891      34604.203    
    488000   95.205098      34629.52     
    489000   99.553512      34567.918    
    490000   94.389106      34698.8      
    491000   98.858345      34565.077    
    492000   100.18456      34610.879    
    493000   99.393807      34566.881    
    494000   100.91894      34664.901    
    495000   94.147758      34627.947    
    496000   99.332607      34672.53     
    497000   98.233997      34561.635    
    498000   105.42971      34585.953    
    499000   101.17162      34653.705    
    500000   98.055044      34697.602    
    501000   101.0615       34588.139    
    502000   98.726345      34684.256    
    503000   99.571011      34537.11     
    504000   98.633603      34680.265    
    505000   100.34299      34698.047    
    506000   100.56345      34601.977    
    507000   98.818787      34652.104    
    508000   101.37838      34618.813    
    509000   94.169176      34588.178    
    510000   99.123651      34688.961    
    511000   99.438045      34645.294    
    512000   101.15769      34569.781    
    513000   97.416888      34620.271    
    514000   100.01294      34621.924    
    515000   104.84844      34574.56     
    516000   100.03254      34609.413    
    517000   99.005019      34669.646    
    518000   101.75806      34557.658    
    519000   96.381133      34703.521    
    520000   100.01154      34611.047    
    521000   99.456807      34616.772    
    522000   101.38396      34665.279    
    523000   101.87776      34561.281    
    524000   102.25553      34656.264    
    525000   95.063211      34629.303    
    526000   101.12308      34645.563    
    527000   94.861122      34537.997    
    528000   99.595813      34703.662    
    529000   94.781925      34579.679    
    530000   96.762072      34570.72     
    531000   96.202475      34697.261    
    532000   102.956        34605.592    
    533000   101.30169      34638.585    
    534000   99.613832      34638.849    
    535000   102.09375      34551.143    
    536000   94.133652      34667.328    
    537000   100.55285      34666.015    
    538000   98.802486      34639.439    
    539000   95.317167      34583.027    
    540000   99.626406      34646.395    
    541000   100.84648      34658.731    
    542000   99.364418      34657.162    
    543000   102.62356      34646.182    
    544000   96.94597       34545.441    
    545000   103.52963      34577.581    
    546000   101.56243      34616.676    
    547000   101.65385      34629.878    
    548000   98.780504      34589.705    
    549000   99.689709      34690.442    
    550000   107.2436       34526.653    
    551000   98.019211      34683.427    
    552000   98.412572      34660.401    
    553000   100.04589      34641.603    
    554000   102.69497      34615.657    
    555000   96.293238      34712.39     
    556000   96.842893      34609.281    
    557000   99.652081      34654.616    
    558000   103.05666      34653.92     
    559000   101.02668      34587.2      
    560000   100.57139      34624.852    
    561000   100.51552      34710.647    
    562000   102.52245      34569.664    
    563000   99.737334      34703.764    
    564000   99.659151      34596.307    
    565000   99.783734      34646.588    
    566000   101.66818      34639.873    
    567000   99.420834      34661.697    
    568000   99.968587      34575.196    
    569000   99.619536      34670.486    
    570000   98.59573       34558.185    
    571000   101.25473      34705.486    
    572000   105.72024      34593.589    
    573000   102.3175       34661.882    
    574000   98.957663      34632.437    
    575000   97.155762      34655.726    
    576000   97.007765      34661.603    
    577000   99.234324      34613.657    
    578000   101.87607      34640.384    
    579000   96.902364      34619.801    
    580000   101.91623      34615.189    
    581000   97.697124      34698.345    
    582000   100.82268      34566.028    
    583000   98.001911      34683.346    
    584000   100.76506      34591.668    
    585000   99.946632      34657.424    
    586000   99.139249      34628.579    
    587000   99.008835      34609.762    
    588000   97.609313      34570.056    
    589000   102.41974      34646.48     
    590000   99.399385      34651.851    
    591000   100.94525      34700.339    
    592000   100.26152      34609.471    
    593000   99.815866      34595.106    
    594000   101.84468      34631.695    
    595000   100.80235      34643.069    
    596000   102.17743      34638.154    
    597000   97.41402       34607.548    
    598000   102.88337      34673.95     
    599000   99.683821      34568.626    
    600000   98.632744      34644.757    
Loop time of 379.157 on 8 procs for 600000 steps with 1248 atoms

Performance: 136.724 ns/day, 0.176 hours/ns, 1582.457 timesteps/s, 1.975 Matom-step/s
99.7% CPU use with 8 MPI tasks x no OpenMP threads

MPI task timing breakdown:
Section |  min time  |  avg time  |  max time  |%varavg| %total
---------------------------------------------------------------
Pair    | 210.2      | 219.19     | 233.42     |  46.3 | 57.81
Bond    | 32.232     | 32.719     | 33.294     |   5.4 |  8.63
Neigh   | 2.4695     | 2.5071     | 2.5777     |   2.6 |  0.66
Comm    | 88.364     | 103.09     | 112.55     |  69.4 | 27.19
Output  | 0.0069903  | 0.0080389  | 0.013104   |   2.2 |  0.00
Modify  | 18.782     | 18.924     | 19.047     |   1.9 |  4.99
Other   |            | 2.725      |            |       |  0.72

Nlocal:            156 ave         158 max         155 min
Histogram: 3 0 0 3 0 0 1 0 0 1
Nghost:        3532.12 ave        3549 max        3510 min
Histogram: 1 1 0 1 1 0 0 1 1 2
Neighs:        34392.9 ave       34749 max       34039 min
Histogram: 1 0 2 0 1 2 0 1 0 1

Total # of neighbors = 275143
Ave neighs/atom = 220.46715
Ave special neighs/atom = 7.4615385
Neighbor list builds = 1793
Dangerous builds = 0
All done!

The 'box' command has been removed and will be ignored

Reading data file ...
  triclinic box = (0 0 0) to (37.2546 32.26343 30.418254) with tilt (18.6273 18.6273 10.754477)
WARNING: Triclinic box skew is large. LAMMPS will run inefficiently. (../domain.cpp:220)
  2 by 2 by 2 MPI processor grid
  reading atoms ...
  1248 atoms
  scanning bonds ...
  5 = max bonds/atom
  scanning angles ...
  10 = max angles/atom
  scanning dihedrals ...
  12 = max dihedrals/atom
  scanning impropers ...
  3 = max impropers/atom
  reading bonds ...
  1584 bonds
  reading angles ...
  3072 angles
  reading dihedrals ...
  3072 dihedrals
  reading impropers ...
  1728 impropers
Finding 1-2 1-3 1-4 neighbors ...
  special bond factors lj:    0        0        1       
  special bond factors coul:  0        0        1       
     5 = max # of 1-2 neighbors
     8 = max # of 1-3 neighbors
    13 = max # of special neighbors
  special bonds CPU = 0.000 seconds
  read_data CPU = 0.023 seconds
1248 atoms in group fram
Generated 6 of 6 mixed pair_coeff terms from arithmetic mixing rule
Neighbor list info ...
  update: every = 1 steps, delay = 0 steps, check = yes
  max neighbors/atom: 2000, page size: 100000
  master list distance cutoff = 14.5
  ghost atom cutoff = 14.5
  binsize = 7.25, bins = 11 6 5
  1 neighbor lists, perpetual/occasional/extra = 1 0 0
  (1) pair lj/cut, perpetual
      attributes: half, newton on
      pair build: half/bin/newton/tri
      stencil: half/bin/3d/tri
      bin: standard
Setting up cg style minimization ...
  Unit style    : real
  Current step  : 0
WARNING: Inconsistent image flags (../domain.cpp:815)
Per MPI rank memory allocation (min/avg/max) = 15.96 | 15.96 | 15.96 Mbytes
   Step          Temp          Volume    
         0   0              36561.56     
       225   0              36561.56     
Loop time of 0.346393 on 8 procs for 225 steps with 1248 atoms

99.7% CPU use with 8 MPI tasks x no OpenMP threads

Minimization stats:
  Stopping criterion = linesearch alpha is zero
  Energy initial, next-to-last, final = 
      18099.1209329177   12468.1339388304   12468.1339388304
  Force two-norm initial, final = 3835.473 1.0462036
  Force max component initial, final = 154.08021 0.0791541
  Final line search alpha, max atom move = 7.7418499e-09 6.1279916e-10
  Iterations, force evaluations = 225 499

MPI task timing breakdown:
Section |  min time  |  avg time  |  max time  |%varavg| %total
---------------------------------------------------------------
Pair    | 0.23492    | 0.24113    | 0.25013    |   1.2 | 69.61
Bond    | 0.024914   | 0.025594   | 0.026412   |   0.3 |  7.39
Neigh   | 0.0013343  | 0.0013504  | 0.0013744  |   0.0 |  0.39
Comm    | 0.061267   | 0.070893   | 0.076388   |   2.3 | 20.47
Output  | 0          | 0          | 0          |   0.0 |  0.00
Modify  | 0          | 0          | 0          |   0.0 |  0.00
Other   |            | 0.007425   |            |       |  2.14

Nlocal:            156 ave         157 max         155 min
Histogram: 2 0 0 0 0 4 0 0 0 2
Nghost:           2994 ave        2995 max        2993 min
Histogram: 2 0 0 0 0 4 0 0 0 2
Neighs:        31787.8 ave       31981 max       31584 min
Histogram: 2 0 0 0 0 4 0 0 0 2

Total # of neighbors = 254302
Ave neighs/atom = 203.76763
Ave special neighs/atom = 7.4615385
Neighbor list builds = 1
Dangerous builds = 0
Generated 6 of 6 mixed pair_coeff terms from arithmetic mixing rule
Setting up Verlet run ...
  Unit style    : real
  Current step  : 225
  Time step     : 1
WARNING: Inconsistent image flags (../domain.cpp:815)
Per MPI rank memory allocation (min/avg/max) = 14.84 | 14.84 | 14.84 Mbytes
   Step          Temp          Volume    
       225   200            36561.56     
      1000   204.83932      36561.56     
      2000   203.2703       36561.56     
      3000   201.29187      36561.56     
      4000   203.7355       36561.56     
      5000   196.5378       36561.56     
      6000   198.78868      36561.56     
      7000   204.92407      36561.56     
      8000   194.84362      36561.56     
      9000   204.50365      36561.56     
     10000   192.73661      36561.56     
     11000   196.2716       36561.56     
     12000   200.1987       36561.56     
     13000   204.2208       36561.56     
     14000   194.71294      36561.56     
     15000   199.60513      36561.56     
     16000   191.59081      36561.56     
     17000   201.30671      36561.56     
     18000   194.3256       36561.56     
     19000   202.45263      36561.56     
     20000   211.31161      36561.56     
     21000   199.38788      36561.56     
     22000   210.59537      36561.56     
     23000   195.134        36561.56     
     24000   204.48896      36561.56     
     25000   199.23979      36561.56     
     26000   196.58451      36561.56     
     27000   207.45954      36561.56     
     28000   193.10684      36561.56     
     29000   197.04453      36561.56     
     30000   212.07981      36561.56     
     31000   201.96739      36561.56     
     32000   203.95826      36561.56     
     33000   202.28987      36561.56     
     34000   207.77865      36561.56     
     35000   197.69072      36561.56     
     36000   204.26221      36561.56     
     37000   197.7392       36561.56     
     38000   202.72925      36561.56     
     39000   196.5957       36561.56     
     40000   204.88688      36561.56     
     41000   199.7774       36561.56     
     42000   202.51336      36561.56     
     43000   195.46621      36561.56     
     44000   198.99722      36561.56     
     45000   204.15931      36561.56     
     46000   194.48618      36561.56     
     47000   202.34048      36561.56     
     48000   206.63035      36561.56     
     49000   200.74933      36561.56     
     50000   194.25601      36561.56     
     51000   199.05156      36561.56     
     52000   197.14485      36561.56     
     53000   199.72317      36561.56     
     54000   200.45087      36561.56     
     55000   207.18885      36561.56     
     56000   194.29702      36561.56     
     57000   206.78147      36561.56     
     58000   196.40066      36561.56     
     59000   204.32378      36561.56     
     60000   204.6051       36561.56     
     61000   201.97272      36561.56     
     62000   203.86808      36561.56     
     63000   192.17131      36561.56     
     64000   210.40122      36561.56     
     65000   199.82244      36561.56     
     66000   204.77106      36561.56     
     67000   198.15213      36561.56     
     68000   197.45647      36561.56     
     69000   195.87966      36561.56     
     70000   195.039        36561.56     
     71000   203.48589      36561.56     
     72000   202.07699      36561.56     
     73000   203.83523      36561.56     
     74000   194.88044      36561.56     
     75000   197.89948      36561.56     
     76000   205.0832       36561.56     
     77000   205.5235       36561.56     
     78000   202.22724      36561.56     
     79000   190.78241      36561.56     
     80000   202.41455      36561.56     
     81000   184.95474      36561.56     
     82000   198.25117      36561.56     
     83000   190.56588      36561.56     
     84000   193.53034      36561.56     
     85000   194.6529       36561.56     
     86000   204.09486      36561.56     
     87000   190.36901      36561.56     
     88000   202.0245       36561.56     
     89000   200.3814       36561.56     
     90000   205.08561      36561.56     
     91000   201.44198      36561.56     
     92000   198.75789      36561.56     
     93000   204.2936       36561.56     
     94000   199.74053      36561.56     
     95000   201.56541      36561.56     
     96000   195.377        36561.56     
     97000   201.34037      36561.56     
     98000   203.83718      36561.56     
     99000   203.28416      36561.56     
    100000   196.74612      36561.56     
    101000   193.1235       36561.56     
    102000   200.27314      36561.56     
    103000   195.62355      36561.56     
    104000   202.62778      36561.56     
    105000   195.05125      36561.56     
    106000   202.63554      36561.56     
    107000   200.74132      36561.56     
    108000   203.72396      36561.56     
    109000   199.3252       36561.56     
    110000   202.65274      36561.56     
    111000   203.10334      36561.56     
    112000   198.73302      36561.56     
    113000   203.12154      36561.56     
    114000   197.63784      36561.56     
    115000   202.20187      36561.56     
    116000   203.23874      36561.56     
    117000   202.14697      36561.56     
    118000   201.84617      36561.56     
    119000   200.41219      36561.56     
    120000   194.72         36561.56     
    121000   200.28413      36561.56     
    122000   208.98097      36561.56     
    123000   199.92363      36561.56     
    124000   205.86749      36561.56     
    125000   204.88653      36561.56     
    126000   195.65712      36561.56     
    127000   199.77182      36561.56     
    128000   200.81126      36561.56     
    129000   198.09158      36561.56     
    130000   193.53015      36561.56     
    131000   192.32896      36561.56     
    132000   199.18371      36561.56     
    133000   198.89067      36561.56     
    134000   202.50403      36561.56     
    135000   193.21246      36561.56     
    136000   201.48232      36561.56     
    137000   208.75491      36561.56     
    138000   201.73453      36561.56     
    139000   197.19445      36561.56     
    140000   200.11166      36561.56     
    141000   191.91887      36561.56     
    142000   199.5191       36561.56     
    143000   201.12327      36561.56     
    144000   194.94949      36561.56     
    145000   206.95436      36561.56     
    146000   198.21801      36561.56     
    147000   201.5632       36561.56     
    148000   203.67455      36561.56     
    149000   210.90428      36561.56     
    150000   203.72523      36561.56     
    151000   196.91552      36561.56     
    152000   199.26069      36561.56     
    153000   202.83668      36561.56     
    154000   196.10174      36561.56     
    155000   196.8119       36561.56     
    156000   197.24006      36561.56     
    157000   193.0415       36561.56     
    158000   199.80814      36561.56     
    159000   201.76052      36561.56     
    160000   194.914        36561.56     
    161000   200.56354      36561.56     
    162000   200.43373      36561.56     
    163000   192.9624       36561.56     
    164000   194.86011      36561.56     
    165000   205.0978       36561.56     
    166000   196.60709      36561.56     
    167000   201.00317      36561.56     
    168000   199.42479      36561.56     
    169000   203.98374      36561.56     
    170000   197.50122      36561.56     
    171000   205.5492       36561.56     
    172000   193.45859      36561.56     
    173000   194.45598      36561.56     
    174000   194.04971      36561.56     
    175000   200.36492      36561.56     
    176000   205.63778      36561.56     
    177000   202.64479      36561.56     
    178000   201.8891       36561.56     
    179000   189.36733      36561.56     
    180000   203.43688      36561.56     
    181000   195.90433      36561.56     
    182000   200.4789       36561.56     
    183000   200.62984      36561.56     
    184000   200.91476      36561.56     
    185000   199.40268      36561.56     
    186000   203.77256      36561.56     
    187000   200.9761       36561.56     
    188000   199.39907      36561.56     
    189000   197.57974      36561.56     
    190000   194.08855      36561.56     
    191000   189.22926      36561.56     
    192000   200.84123      36561.56     
    193000   192.80255      36561.56     
    194000   203.92175      36561.56     
    195000   192.45695      36561.56     
    196000   199.67196      36561.56     
    197000   201.44065      36561.56     
    198000   206.92269      36561.56     
    199000   195.35626      36561.56     
    200000   206.974        36561.56     
    200225   192.11215      36561.56     
Loop time of 102.032 on 8 procs for 200000 steps with 1248 atoms

Performance: 169.359 ns/day, 0.142 hours/ns, 1960.171 timesteps/s, 2.446 Matom-step/s
99.7% CPU use with 8 MPI tasks x no OpenMP threads

MPI task timing breakdown:
Section |  min time  |  avg time  |  max time  |%varavg| %total
---------------------------------------------------------------
Pair    | 61.926     | 62.784     | 63.655     |   8.7 | 61.53
Bond    | 8.3067     | 8.3929     | 8.5266     |   2.5 |  8.23
Neigh   | 0          | 0          | 0          |   0.0 |  0.00
Comm    | 27.163     | 28.394     | 29.111     |  11.8 | 27.83
Output  | 0.0016931  | 0.0021546  | 0.0049121  |   2.2 |  0.00
Modify  | 1.1834     | 1.6157     | 2.031      |  32.0 |  1.58
Other   |            | 0.8435     |            |       |  0.83

Nlocal:            156 ave         159 max         154 min
Histogram: 4 0 0 0 0 0 2 0 0 2
Nghost:           3156 ave        3158 max        3153 min
Histogram: 2 0 0 0 2 0 0 0 0 4
Neighs:        32016.2 ave       32606 max       31625 min
Histogram: 4 0 0 0 0 2 0 0 0 2

Total # of neighbors = 256130
Ave neighs/atom = 205.23237
Ave special neighs/atom = 7.4615385
Neighbor list builds = 0
Dangerous builds = 0
Generated 6 of 6 mixed pair_coeff terms from arithmetic mixing rule
Setting up Verlet run ...
  Unit style    : real
  Current step  : 200225
  Time step     : 1
WARNING: Inconsistent image flags (../domain.cpp:815)
Per MPI rank memory allocation (min/avg/max) = 14.86 | 14.86 | 14.86 Mbytes
   Step          Temp          Volume    
    200225   192.11215      36561.56     
    201000   200.20352      34351.954    
    202000   194.3797       34781.243    
    203000   207.28875      34735.666    
    204000   202.73277      34803.527    
    205000   197.31249      34613.122    
    206000   196.91032      34478.236    
    207000   202.66421      34518.806    
    208000   200.21662      34542.51     
    209000   201.69659      34689.004    
    210000   195.1347       34748.29     
    211000   196.97766      34675.179    
    212000   200.83474      34550.379    
    213000   189.9688       34411.683    
    214000   195.04685      34415.256    
    215000   202.17168      34612.275    
    216000   193.49868      34650.738    
    217000   197.38556      34874.106    
    218000   205.25148      34751.907    
    219000   197.38171      34600.345    
    220000   201.9194       34495.798    
    221000   196.69512      34486.771    
    222000   201.9874       34606.361    
    223000   200.36496      34691.408    
    224000   195.81229      34663.541    
    225000   204.88329      34630.49     
    226000   197.38125      34507.332    
    227000   193.45026      34492.151    
    228000   198.9255       34545.737    
    229000   198.67503      34589.407    
    230000   203.00766      34711.799    
    231000   201.09377      34746.99     
    232000   199.55532      34616.185    
    233000   198.09968      34527.838    
    234000   200.55513      34437.343    
    235000   191.89194      34605.968    
    236000   203.26529      34760.807    
    237000   204.50594      34780.49     
    238000   197.05157      34812.521    
    239000   204.76258      34574.84     
    240000   200.3307       34460.442    
    241000   198.20516      34474.625    
    242000   193.99311      34597.048    
    243000   210.31285      34806.406    
    244000   203.55158      34676.837    
    245000   197.00858      34656.279    
    246000   203.28656      34483.516    
    247000   202.40956      34397.136    
    248000   200.05566      34565.237    
    249000   197.71538      34626.249    
    250000   196.76935      34841.031    
    251000   204.9508       34818.987    
    252000   203.72847      34651.006    
    253000   202.77097      34454.896    
    254000   191.9765       34367.014    
    255000   211.73295      34464.242    
    256000   201.66657      34624.08     
    257000   200.33658      34715.443    
    258000   203.67566      34675.27     
    259000   205.22834      34498.74     
    260000   200.44303      34550.008    
    261000   204.63265      34587.452    
    262000   197.7988       34536.205    
    263000   198.49883      34739.815    
    264000   207.80309      34765.457    
    265000   202.62974      34606.224    
    266000   199.22527      34563.146    
    267000   197.09704      34382.223    
    268000   198.13484      34504.019    
    269000   199.05031      34639.268    
    270000   199.91107      34702.068    
    271000   200.29383      34755.95     
    272000   198.39185      34710.127    
    273000   203.72178      34623.494    
    274000   205.05109      34517.013    
    275000   192.49575      34515.607    
    276000   198.98094      34610.274    
    277000   196.32985      34697.352    
    278000   197.19288      34673.674    
    279000   201.40055      34683.792    
    280000   193.64416      34560.003    
    281000   198.2327       34664.854    
    282000   187.11552      34618.207    
    283000   199.57482      34679.264    
    284000   204.69331      34682.111    
    285000   193.28676      34581.637    
    286000   205.4003       34575.662    
    287000   198.29135      34483.926    
    288000   197.21893      34538.725    
    289000   194.20325      34568.935    
    290000   191.6692       34679.213    
    291000   205.45696      34767.479    
    292000   203.15585      34705.141    
    293000   206.57271      34628.524    
    294000   191.84863      34585.1      
    295000   202.289        34603.508    
    296000   192.70038      34668.381    
    297000   200.41732      34722.944    
    298000   204.0873       34678.094    
    299000   202.40149      34583.245    
    300000   194.80234      34552.773    
    301000   195.20501      34526.528    
    302000   204.92733      34562.268    
    303000   202.41666      34669.33     
    304000   202.46243      34610.723    
    305000   196.88604      34659.683    
    306000   197.51885      34610.904    
    307000   203.62685      34566.34     
    308000   208.10075      34587.294    
    309000   201.64471      34579.767    
    310000   199.05013      34591.029    
    311000   203.07013      34654.622    
    312000   198.34809      34614.454    
    313000   198.35228      34521.931    
    314000   205.79728      34551.627    
    315000   198.69421      34530.305    
    316000   200.74311      34644.516    
    317000   206.00709      34629.807    
    318000   204.40229      34706.378    
    319000   201.88692      34716.862    
    320000   195.57925      34577.141    
    321000   202.3697       34586.115    
    322000   194.83624      34550.572    
    323000   199.81083      34637.526    
    324000   203.84822      34646.073    
    325000   195.04292      34725.461    
    326000   202.14224      34653.524    
    327000   205.44652      34605.099    
    328000   200.05785      34475.594    
    329000   195.74836      34544.035    
    330000   201.87365      34594.786    
    331000   194.84822      34653.081    
    332000   205.03656      34611.632    
    333000   196.95729      34567.414    
    334000   205.02869      34589.906    
    335000   195.41412      34616.458    
    336000   194.96573      34663.33     
    337000   193.63573      34658.376    
    338000   203.64086      34660.358    
    339000   201.3137       34571.286    
    340000   213.48121      34560.741    
    341000   198.5103       34551.799    
    342000   210.57957      34610.333    
    343000   203.24094      34613.813    
    344000   204.68162      34691.535    
    345000   198.07987      34754.166    
    346000   200.14074      34677.949    
    347000   196.48527      34616.807    
    348000   199.69946      34651.253    
    349000   203.85336      34595.058    
    350000   196.13616      34643.368    
    351000   200.30663      34569.407    
    352000   202.32809      34535.499    
    353000   201.59486      34512.955    
    354000   196.5184       34523.37     
    355000   196.78488      34568.085    
    356000   195.88291      34626.649    
    357000   197.8902       34634.172    
    358000   194.93746      34704.343    
    359000   205.62607      34590.255    
    360000   192.60063      34598.408    
    361000   201.49256      34580.694    
    362000   190.16972      34570.813    
    363000   198.85872      34642.431    
    364000   203.34696      34523.81     
    365000   195.42559      34617.297    
    366000   201.33804      34709.159    
    367000   202.69076      34620.673    
    368000   197.38506      34644.882    
    369000   198.90898      34577.318    
    370000   195.37973      34625.378    
    371000   196.10572      34577.15     
    372000   194.47939      34437.993    
    373000   204.80646      34471.225    
    374000   201.03616      34558.117    
    375000   204.50717      34609.335    
    376000   197.44275      34691.097    
    377000   208.37796      34639.858    
    378000   200.22236      34786.521    
    379000   192.75984      34707.19     
    380000   202.16023      34621.346    
    381000   196.41903      34644.205    
    382000   206.34284      34566.586    
    383000   198.99044      34548.31     
    384000   203.38847      34521.935    
    385000   209.00282      34474.046    
    386000   196.97256      34503.959    
    387000   189.70084      34593.073    
    388000   210.30262      34604.879    
    389000   198.55249      34678        
    390000   204.64559      34658.196    
    391000   203.46884      34675.883    
    392000   195.06956      34628.34     
    393000   198.78952      34449.219    
    394000   198.5334       34589.823    
    395000   213.43551      34531.935    
    396000   197.08302      34611.818    
    397000   193.96226      34643.073    
    398000   200.35093      34620.568    
    399000   194.44337      34577.369    
    400000   195.97194      34535.449    
    400225   199.15681      34577.679    
Loop time of 126.372 on 8 procs for 200000 steps with 1248 atoms

Performance: 136.739 ns/day, 0.176 hours/ns, 1582.624 timesteps/s, 1.975 Matom-step/s
99.7% CPU use with 8 MPI tasks x no OpenMP threads

MPI task timing breakdown:
Section |  min time  |  avg time  |  max time  |%varavg| %total
---------------------------------------------------------------
Pair    | 71.177     | 72.845     | 74.286     |  12.7 | 57.64
Bond    | 10.777     | 10.947     | 11.442     |   6.2 |  8.66
Neigh   | 3.1785     | 3.2199     | 3.3004     |   2.7 |  2.55
Comm    | 32.026     | 33.534     | 35.445     |  22.2 | 26.54
Output  | 0.0018193  | 0.002346   | 0.0052591  |   2.3 |  0.00
Modify  | 4.8325     | 4.9199     | 5.0338     |   3.6 |  3.89
Other   |            | 0.9054     |            |       |  0.72

Nlocal:            156 ave         160 max         147 min
Histogram: 1 0 0 0 0 1 2 1 0 3
Nghost:        3502.88 ave        3526 max        3454 min
Histogram: 1 0 0 0 0 2 1 1 0 3
Neighs:        34234.9 ave       35042 max       32365 min
Histogram: 1 0 0 0 1 0 1 1 1 3

Total # of neighbors = 273879
Ave neighs/atom = 219.45433
Ave special neighs/atom = 7.4615385
Neighbor list builds = 2265
Dangerous builds = 0
Generated 6 of 6 mixed pair_coeff terms from arithmetic mixing rule
Setting up Verlet run ...
  Unit style    : real
  Current step  : 0
  Time step     : 1
WARNING: Inconsistent image flags (../domain.cpp:815)
Per MPI rank memory allocation (min/avg/max) = 14.86 | 14.86 | 14.86 Mbytes
   Step          Temp          Volume    
         0   199.15681      34577.679    
      1000   199.1086       34602.694    
      2000   198.8091       34632.695    
      3000   196.76649      34579.493    
      4000   206.04396      34616.815    
      5000   190.69079      34622.794    
      6000   192.29343      34516.558    
      7000   194.74003      34549.014    
      8000   195.6245       34590.524    
      9000   199.04632      34518.546    
     10000   203.38446      34654.323    
     11000   195.12235      34654.253    
     12000   199.98391      34662.077    
     13000   191.55537      34707.713    
     14000   196.54348      34643.806    
     15000   197.73436      34650.824    
     16000   199.04257      34544.183    
     17000   203.34701      34555.909    
     18000   197.38437      34678.941    
     19000   201.48384      34625.881    
     20000   208.44708      34658.428    
     21000   195.77155      34680.087    
     22000   207.21639      34621.338    
     23000   192.78461      34627.027    
     24000   200.54915      34547.144    
     25000   206.39185      34471.518    
     26000   206.20248      34589.454    
     27000   192.95967      34588.596    
     28000   208.46878      34605.552    
     29000   202.72639      34667        
     30000   192.28961      34629.961    
     31000   205.78012      34730.862    
     32000   198.98481      34588.466    
     33000   197.48311      34623.877    
     34000   199.92618      34561.657    
     35000   199.3495       34537.866    
     36000   200.00252      34644.388    
     37000   199.99247      34569.507    
     38000   205.03128      34664.892    
     39000   201.49843      34645.907    
     40000   200.97449      34593.102    
     41000   192.81995      34663.957    
     42000   205.40245      34584.626    
     43000   196.09489      34492.142    
     44000   204.21193      34513.587    
     45000   198.206        34466.677    
     46000   189.36006      34606.192    
     47000   195.89264      34635.797    
     48000   201.79446      34634.77     
     49000   194.95974      34692.976    
     50000   202.35769      34530.98     
     51000   207.25042      34663.908    
     52000   210.09194      34579.535    
     53000   205.60014      34598.293    
     54000   201.28618      34639.778    
     55000   196.13371      34559.879    
     56000   211.4177       34594.643    
     57000   201.51212      34507.44     
     58000   209.07054      34643.735    
     59000   200.18231      34675.509    
     60000   200.98518      34771.992    
     61000   203.90952      34756.585    
     62000   182.894        34663.795    
     63000   199.51841      34617.446    
     64000   199.26981      34500.086    
     65000   199.46708      34461.925    
     66000   202.08257      34573.481    
     67000   199.3117       34665.402    
     68000   204.00156      34622.87     
     69000   194.5885       34682.025    
     70000   207.80325      34528.418    
     71000   201.44578      34520.808    
     72000   193.0679       34449.683    
     73000   194.9862       34496.132    
     74000   197.13737      34580.909    
     75000   200.19842      34575.94     
     76000   193.16902      34577.847    
     77000   194.90685      34614.448    
     78000   198.9128       34609.515    
     79000   197.21948      34646.219    
     80000   191.59151      34737.153    
     81000   200.41755      34622.105    
     82000   201.70677      34569.176    
     83000   205.93564      34501.971    
     84000   194.31626      34560.588    
     85000   205.3188       34572.144    
     86000   206.22193      34575.373    
     87000   202.26275      34655.101    
     88000   212.26341      34608.816    
     89000   196.67519      34648.752    
     90000   203.20685      34670.701    
     91000   197.1899       34704.061    
     92000   204.69623      34728.625    
     93000   198.14264      34659.355    
     94000   203.42178      34629.362    
     95000   204.20262      34575.477    
     96000   195.40601      34620.163    
     97000   193.51366      34529.431    
     98000   195.32952      34571.156    
     99000   205.57181      34551.37     
    100000   190.29022      34594.776    
    101000   208.89949      34578.786    
    102000   200.00528      34553.392    
    103000   208.87131      34548.286    
    104000   191.58644      34590.39     
    105000   205.02198      34545.649    
    106000   197.79863      34519.486    
    107000   202.3084       34611.22     
    108000   196.58515      34651.581    
    109000   193.16722      34639.836    
    110000   195.61478      34594.467    
    111000   199.24746      34512.394    
    112000   197.97433      34557.484    
    113000   193.86678      34589.555    
    114000   206.0224       34624.315    
    115000   202.50112      34645.394    
    116000   202.72971      34580.368    
    117000   198.41798      34547.668    
    118000   196.57469      34471.254    
    119000   200.06837      34490.263    
    120000   197.24289      34565.239    
    121000   205.20674      34569.322    
    122000   194.28958      34608.142    
    123000   205.97544      34607.698    
    124000   196.48018      34552.27     
    125000   197.82404      34574.498    
    126000   202.62739      34630.93     
    127000   199.43259      34625.459    
    128000   201.32726      34597.219    
    129000   197.13683      34491.831    
    130000   200.38831      34537.535    
    131000   194.88668      34618.633    
    132000   210.26369      34657.592    
    133000   194.7854       34633.211    
    134000   203.00432      34585.884    
    135000   191.15561      34515.301    
    136000   201.1297       34370.072    
    137000   203.27769      34468.498    
    138000   191.96662      34515.828    
    139000   207.45784      34588.369    
    140000   201.81077      34686.214    
    141000   196.41746      34722.844    
    142000   200.19552      34640.84     
[...]
    180000   520.90788      34476.405    
    181000   488.9564       34486.783    
    182000   488.48045      34568.189    
    183000   501.92855      34527.469    
    184000   501.28042      34442.745    
    185000   490.61413      34430.498    
    186000   503.54747      34494.846    
    187000   490.20887      34371.71     
    188000   497.40039      34409.052    
    189000   484.58641      34449.311    
    190000   483.99305      34422.981    
    191000   509.39448      34548.588    
    192000   487.61846      34694.014    
    193000   498.85165      34596.237    
    194000   494.23864      34362.204    
    195000   493.66137      34358.687    
    196000   491.13786      34499.371    
    197000   500.7819       34548.726    
    198000   489.34173      34461.601    
    199000   482.29666      34590.052    
    200000   508.52316      34482.663    
    201000   488.56491      34386.481    
    202000   509.425        34496.486    
    203000   497.85692      34654.392    
    204000   507.75755      34710.326    
    205000   490.28212      34384.217    
    206000   515.94347      34522.927    
    207000   500.91294      34493.583    
    208000   497.11052      34427.848    
    209000   487.78272      34497.06     
    210000   508.99383      34579.846    
    211000   520.4296       34530.801    
    212000   513.86739      34505.255    
    213000   497.93015      34707.847    
    214000   473.38516      34512.713    
    215000   506.25606      34376.906    
    216000   498.10562      34605.276    
    217000   504.40068      34524.979    
    218000   509.62473      34343.255    
    219000   501.69641      34536.004    
    220000   501.95585      34642.781    
    221000   496.68276      34463.8      
    222000   513.08982      34566.511    
    223000   505.12287      34540.242    
    224000   506.34928      34392.326    
    225000   512.32818      34495.487    
    226000   498.9234       34602.262    
    227000   494.23313      34463.093    
    228000   500.63777      34421.407    
    229000   479.61419      34412.181    
    230000   502.74483      34602.121    
    231000   498.8431       34545.383    
    232000   485.64633      34415.941    
    233000   502.08349      34410.73     
    234000   495.2196       34583.235    
    235000   478.18207      34403.543    
    236000   522.79212      34269.118    
    237000   492.78805      34562.267    
    238000   498.73131      34483.866    
    239000   508.93139      34226.124    
    240000   499.37151      34582.985    
    241000   520.57315      34575.443    
    242000   485.28865      34430.032    
    243000   497.5491       34397.287    
    244000   475.43799      34502.939    
    245000   485.61931      34538.847    
    246000   503.07164      34500.18     
    247000   487.95162      34478.777    
    248000   494.96043      34447.492    
    249000   484.10327      34510.441    
    250000   516.05599      34554.525    
    251000   491.75859      34651.414    
    252000   523.33084      34607.832    
    253000   496.52165      34547.954    
    254000   481.84691      34536.141    
    255000   509.21035      34354.008    
    256000   483.77159      34334.247    
    257000   491.15813      34386.912    
    258000   489.96055      34361.623    
    259000   481.3329       34504.797    
    260000   502.40277      34533.24     
    261000   506.02376      34589.692    
    262000   507.99045      34408.761    
    263000   474.5528       34485.397    
    264000   502.39581      34535.205    
    265000   501.62201      34533.838    
    266000   511.90841      34490.699    
    267000   496.5203       34467.62     
    268000   507.46737      34458.806    
    269000   510.40124      34473.624    
    270000   480.16407      34554.116    
    271000   497.38126      34463.684    
    272000   508.02776      34369.821    
    273000   500.54618      34708.826    
    274000   530.26753      34564.717    
    275000   500.89447      34309.548    
    276000   477.06286      34454.986    
    277000   492.43928      34454.654    
    278000   487.07521      34411.326    
    279000   471.76412      34462.625    
    280000   505.56287      34316.183    
    281000   491.28444      34376.114    
    282000   504.86777      34520.174    
    283000   506.07479      34571.541    
    284000   508.60179      34470.81     
    285000   507.04187      34445.113    
    286000   495.12571      34457.233    
    287000   512.18451      34475.503    
    288000   494.94869      34469.842    
    289000   502.66661      34446.866    
    290000   504.1014       34515.174    
    291000   494.25661      34401.398    
    292000   498.35545      34431.735    
    293000   506.36532      34640.045    
    294000   518.94813      34414.825    
    295000   484.4521       34327.731    
    296000   491.21566      34697.721    
    297000   503.36086      34620.837    
    298000   483.84939      34447.031    
    299000   484.81807      34497.003    
    300000   488.22876      34588.113    
    301000   490.22766      34362.236    
    302000   500.42227      34204.695    
    303000   495.44464      34522.523    
    304000   497.09966      34689.701    
    305000   501.57803      34432.086    
    306000   505.28137      34505.874    
    307000   511.1169       34526.636    
    308000   488.13482      34388.232    
    309000   493.93841      34448.222    
    310000   499.78344      34592.052    
    311000   508.87696      34582.121    
    312000   502.78987      34503.519    
    313000   516.03704      34497.315    
    314000   495.41604      34580.436    
    315000   500.87599      34472.891    
    316000   493.17612      34513.87     
    317000   496.47758      34494.308    
    318000   492.82689      34301.767    
    319000   484.59006      34433.089    
    320000   499.33673      34363.746    
    321000   481.84364      34377.247    
    322000   513.34026      34669.527    
    323000   534.11976      34632.027    
    324000   509.38788      34443.793    
    325000   500.52416      34616.045    
    326000   535.24511      34537.58     
    327000   488.42547      34316.029    
    328000   525.03142      34532.68     
    329000   492.01712      34581.137    
    330000   516.61499      34365.612    
    331000   484.11318      34404.239    
    332000   517.91975      34470.272    
    333000   500.73029      34641.542    
    334000   477.85541      34500.872    
    335000   492.06084      34482.019    
    336000   497.54375      34596.983    
    337000   483.18377      34302.75     
    338000   475.89479      34347.779    
    339000   509.82249      34646.448    
    340000   487.23521      34491.465    
    341000   508.64626      34339.151    
    342000   485.62197      34494.009    
    343000   508.40093      34541.149    
    344000   497.54236      34489.848    
    345000   508.86766      34614.998    
    346000   478.25037      34730.552    
    347000   497.93212      34264.307    
    348000   492.34464      34226.372    
    349000   494.02674      34643.725    
    350000   505.46083      34581.879    
    351000   490.0764       34441.403    
    352000   496.13419      34473.26     
    353000   495.66376      34618.414    
    354000   495.50891      34356.737    
    355000   481.74814      34376.481    
    356000   507.5252       34610.831    
    357000   502.4835       34589.012    
    358000   506.1107       34481.015    
    359000   525.88116      34673.283    
    360000   486.03703      34545.811    
    361000   528.50368      34317.706    
    362000   487.69178      34482.637    
    363000   473.98073      34575.146    
    364000   496.97889      34642.182    
    365000   489.42752      34555.864    
    366000   506.78438      34545.926    
    367000   491.39448      34602.827    
    368000   495.81477      34521.642    
    369000   515.54608      34399.252    
    370000   491.01726      34482.596    
    371000   502.70315      34531.725    
    372000   506.90549      34495.658    
    373000   510.31375      34558.334    
    374000   508.57457      34605.077    
    375000   498.51025      34464.489    
    376000   485.31393      34460.393    
    377000   501.58665      34446.474    
    378000   483.96696      34479.59     
    379000   493.90571      34482.954    
    380000   511.75884      34638.561    
    381000   493.79691      34561.494    
    382000   471.08582      34246.388    
    383000   510.11221      34459.488    
    384000   486.00019      34618.463    
    385000   506.85311      34426.104    
    386000   482.45094      34495.446    
    387000   507.0924       34556.876    
    388000   503.64724      34480.049    
    389000   508.20715      34210.334    
    390000   507.45408      34607.392    
    391000   456.5573       34515.092    
    392000   488.28776      34352.347    
    393000   492.6017       34375.738    
    394000   496.32609      34629.159    
    395000   508.75594      34535.527    
    396000   508.72168      34474.756    
    397000   517.35259      34521.514    
    398000   493.67749      34646.842    
    399000   511.07111      34367.106    
    400000   495.64972      34377.992    
    401000   501.74202      34572.443    
    402000   509.68746      34495.715    
    403000   495.194        34286.902    
    404000   509.95664      34538.465    
    405000   514.69844      34737.609    
    406000   514.62501      34424.199    
    407000   510.25948      34457.628    
    408000   515.09379      34730.696    
    409000   513.12147      34351.104    
    410000   503.47426      34247.423    
    411000   490.29317      34642.931    
    412000   502.33786      34420.217    
    413000   488.57795      34333.88     
    414000   491.91254      34759.742    
    415000   502.78183      34499.505    
    416000   492.09         34232.246    
    417000   517.31574      34499.407    
    418000   493.26467      34555.454    
    419000   509.74209      34343.64     
    420000   500.16014      34463.478    
    421000   499.3316       34580.874    
    422000   509.1354       34459.565    
    423000   486.88866      34407.041    
    424000   518.07634      34568.531    
    425000   520.16232      34606.237    
    426000   488.25668      34466.259    
    427000   516.45635      34464.817    
    428000   509.35789      34545.482    
    429000   494.25102      34613.861    
    430000   503.10828      34384.455    
    431000   521.51314      34495.84     
    432000   500.94252      34572.68     
    433000   496.81615      34359.118    
    434000   498.9198       34380.909    
    435000   491.33199      34616.092    
    436000   480.61627      34565.791    
    437000   495.01174      34468.903    
    438000   491.80322      34634.042    
    439000   508.28538      34436.528    
    440000   495.00547      34428.801    
    441000   502.41174      34633.26     
    442000   509.35642      34515.092    
    443000   493.33373      34461.384    
    444000   509.29164      34528.284    
    445000   495.08196      34426.791    
    446000   508.33292      34484.616    
    447000   494.87259      34570.905    
    448000   500.76362      34539.549    
    449000   479.77944      34236.879    
    450000   495.85983      34472.351    
    451000   495.55684      34604.101    
    452000   501.31034      34401.612    
    453000   485.61966      34519.808    
    454000   500.56468      34617.069    
    455000   499.57685      34465.022    
    456000   494.03366      34433.124    
    457000   499.65917      34455.803    
    458000   500.04313      34435.367    
    459000   509.93224      34581.823    
    460000   494.50525      34500.759    
    461000   509.26524      34480.065    
    462000   498.4047       34465.418    
    463000   493.23072      34431.551    
    464000   523.14475      34467.573    
    465000   477.70645      34536.134    
    466000   501.38288      34437.525    
    467000   504.369        34211.494    
    468000   499.97609      34443.655    
    469000   477.07013      34464.263    
    470000   509.80138      34305.789    
    471000   501.17849      34345.687    
    472000   505.06248      34634.491    
    473000   526.81708      34513.92     
    474000   507.63824      34448.642    
    475000   461.89562      34531.626    
    476000   494.55771      34488.479    
    477000   510.17469      34425.157    
    478000   496.05699      34580.172    
    479000   494.59181      34531.582    
    480000   502.83712      34461.251    
    481000   481.44784      34573.208    
    482000   533.47776      34754.152    
    483000   493.96308      34491.561    
    484000   502.54425      34411.213    
    485000   514.73536      34616.377    
    486000   524.40798      34546.244    
    487000   483.98362      34475.873    
    488000   523.08131      34506.375    
    489000   494.80399      34496.584    
    490000   488.92624      34307.033    
    491000   503.04848      34386.55     
    492000   490.23046      34515.917    
    493000   499.88689      34474.166    
    494000   499.72142      34493.74     
    495000   496.12429      34518.783    
    496000   518.32968      34382.623    
    497000   481.46545      34447.083    
    498000   488.83565      34826.252    
    499000   503.19086      34508.2      
    500000   483.38068      34294.709    
    501000   490.01249      34519.417    
    502000   504.55936      34428.192    
    503000   519.78944      34256.279    
    504000   493.68376      34544.345    
    505000   497.90321      34637.171    
    506000   487.72207      34479.257    
    507000   520.17922      34580.875    
    508000   492.67544      34514.477    
    509000   493.01343      34332.534    
    510000   519.89411      34324.88     
    511000   500.53727      34541.933    
    512000   498.15619      34570.726    
    513000   496.23902      34399.255    
    514000   482.07653      34341.92     
    515000   510.1074       34622.01     
    516000   489.73424      34419.163    
    517000   515.53389      34333.926    
    518000   493.45839      34617.983    
    519000   508.43565      34674.809    
    520000   505.92637      34384.68     
    521000   491.97901      34463.165    
    522000   506.03433      34506.658    
    523000   495.71114      34424.212    
    524000   503.60905      34407.892    
    525000   504.11825      34580.516    
    526000   490.7345       34340.841    
    527000   493.05382      34296.616    
    528000   496.79034      34651.694    
    529000   492.86814      34417.53     
    530000   484.56502      34490.114    
    531000   518.45218      34503.07     
    532000   512.72225      34503.091    
    533000   492.32181      34431.883    
    534000   504.77167      34451.197    
    535000   519.28749      34455.066    
    536000   486.77109      34462.565    
    537000   514.65663      34419.126    
    538000   505.18628      34550.201    
    539000   501.16619      34537.413    
    540000   493.12003      34538.799    
    541000   513.13584      34688.844    
    542000   519.34099      34575.186    
    543000   499.33273      34354.362    
    544000   517.72658      34343.381    
    545000   506.5413       34473.635    
    546000   495.69281      34575.424    
    547000   523.8421       34593.192    
    548000   495.07371      34497.655    
    549000   507.68986      34462.535    
    550000   480.26296      34474.022    
    551000   484.17399      34503.787    
    552000   514.41205      34437.574    
    553000   484.66913      34519.43     
    554000   512.42162      34543.75     
    555000   485.2004       34558.688    
    556000   479.70879      34467.023    
    557000   513.8817       34605.844    
    558000   484.43254      34447.597    
    559000   501.74396      34417.392    
    560000   498.64638      34585.951    
    561000   501.85017      34630.167    
    562000   506.78446      34291.104    
    563000   489.13948      34372.671    
    564000   526.37905      34554.841    
    565000   491.57965      34438.746    
    566000   488.30077      34498.269    
    567000   514.06881      34522.406    
    568000   496.90257      34555.8      
    569000   504.12725      34474.2      
    570000   513.08397      34450.71     
    571000   481.45204      34506.052    
    572000   500.7484       34586.31     
    573000   486.13707      34593.353    
    574000   501.43748      34409.745    
    575000   493.34045      34462.675    
    576000   496.0833       34562.048    
    577000   501.02396      34380.686    
    578000   494.99328      34480.533    
    579000   511.28056      34591.714    
    580000   504.88904      34354.438    
    581000   504.88181      34446.716    
    582000   510.59327      34512.783    
    583000   483.33089      34608.229    
    584000   505.085        34642.591    
    585000   512.11744      34548.573    
    586000   481.72645      34461.323    
    587000   500.58279      34463.322    
    588000   500.13657      34606.719    
    589000   493.11612      34605.16     
    590000   516.14725      34502.117    
    591000   482.41978      34542.242    
    592000   509.35543      34428.834    
    593000   518.29263      34517.266    
    594000   495.34902      34562.535    
    595000   499.96711      34438.13     
    596000   493.33255      34646.312    
    597000   485.24735      34480.554    
    598000   493.60245      34425.167    
    599000   509.03222      34572.207    
    600000   524.15476      34473.348    
Loop time of 563.969 on 8 procs for 600000 steps with 1248 atoms

Performance: 91.920 ns/day, 0.261 hours/ns, 1063.888 timesteps/s, 1.328 Matom-step/s
99.6% CPU use with 8 MPI tasks x no OpenMP threads

MPI task timing breakdown:
Section |  min time  |  avg time  |  max time  |%varavg| %total
---------------------------------------------------------------
Pair    | 207.41     | 212.23     | 216.72     |  21.9 | 37.63
Bond    | 30.446     | 30.715     | 31.016     |   3.4 |  5.45
Neigh   | 22.149     | 23.98      | 26.693     |  34.5 |  4.25
Comm    | 255.28     | 266.74     | 278.83     |  63.2 | 47.30
Output  | 0.010829   | 0.012511   | 0.018127   |   2.0 |  0.00
Modify  | 20.126     | 27.178     | 34.27      | 133.2 |  4.82
Other   |            | 3.116      |            |       |  0.55

Nlocal:            156 ave         162 max         148 min
Histogram: 1 0 0 0 0 4 1 1 0 1
Nghost:           3558 ave        3630 max        3501 min
Histogram: 2 0 1 1 1 0 1 0 1 1
Neighs:        34432.6 ave       35740 max       32421 min
Histogram: 1 0 0 0 0 2 2 2 0 1

Total # of neighbors = 275461
Ave neighs/atom = 220.72196
Ave special neighs/atom = 7.4615385
Neighbor list builds = 16083
Dangerous builds = 0
All done!
Total wall time: 0:58:51
[1712559122.580621] [c15:1340414:0]      ib_mlx5_dv.c:437  UCX  WARN  mlx5dv_devx_obj_destroy(flush_dvmr) failed: Invalid argument
[1712559122.580620] [c15:1340416:0]      ib_mlx5_dv.c:437  UCX  WARN  mlx5dv_devx_obj_destroy(flush_dvmr) failed: Invalid argument
[1712559122.580757] [c15:1340406:0]      ib_mlx5_dv.c:437  UCX  WARN  mlx5dv_devx_obj_destroy(flush_dvmr) failed: Invalid argument
[1712559122.581228] [c15:1340423:0]      ib_mlx5_dv.c:437  UCX  WARN  mlx5dv_devx_obj_destroy(flush_dvmr) failed: Invalid argument
[1712559122.581760] [c15:1340408:0]      ib_mlx5_dv.c:437  UCX  WARN  mlx5dv_devx_obj_destroy(flush_dvmr) failed: Invalid argument
[1712559122.585721] [c15:1340411:0]      ib_mlx5_dv.c:437  UCX  WARN  mlx5dv_devx_obj_destroy(flush_dvmr) failed: Invalid argument
[1712559122.585723] [c15:1340426:0]      ib_mlx5_dv.c:437  UCX  WARN  mlx5dv_devx_obj_destroy(flush_dvmr) failed: Invalid argument
[1712559122.591722] [c15:1340422:0]      ib_mlx5_dv.c:437  UCX  WARN  mlx5dv_devx_obj_destroy(flush_dvmr) failed: Invalid argument
