Created on Tue Aug 22 17:20:45 2023 

        3078 atoms
        3996 bonds
       10044 angles
        6480 dihedrals
        4212 impropers

           6 atom types
           8 bond types
          15 angle types
           3 dihedral types
           1 improper types
           0.000000  44.452200 xlo xhi
           0.000000  38.496734 ylo yhi
           0.000000  36.295069 zlo zhi
          22.226100  22.226100  12.832245 xy xz yz

Masses

    1    12.010700000 # C_R
    2    15.999400000 # O_R
    3     1.007940000 # H_
    4    91.224000000 # Zr3+4
    5    15.999400000 # O_2
    6    15.999400000 # O_3

Bond Coeffs

    1      357.440381        1.081418  # C_R H_
    2      462.655054        1.379256  # C_R C_R
    3      291.001389        2.127094  # O_R Zr3+4
    4      646.680887        1.311940  # O_R C_R
    5      299.444644        2.106911  # Zr3+4 O_3
    6      308.999548        2.084967  # Zr3+4 O_2
    7      391.669513        1.458000  # C_R C_R
    8      559.995206        0.990254  # O_3 H_

Angle Coeffs

    1              cosine/periodic       57.289016              -1               3 # H_ C_R C_R
    2              cosine/periodic      111.297508              -1               3 # C_R C_R C_R
    3              cosine/periodic      124.830884              -1               3 # Zr3+4 O_R C_R
    4                      fourier      111.773978        0.343737        0.374972        0.281246 # O_R Zr3+4 O_R
    5                      fourier      115.139800        0.343737        0.374972        0.281246 # O_R Zr3+4 O_2
    6                      fourier      113.375220        0.343737        0.374972        0.281246 # O_R Zr3+4 O_3
    7                      fourier      118.687092        0.343737        0.374972        0.281246 # O_2 Zr3+4 O_2
    8                      fourier      116.826851        0.343737        0.374972        0.281246 # O_2 Zr3+4 O_3
    9                      fourier      115.017042        0.343737        0.374972        0.281246 # O_3 Zr3+4 O_3
   10              cosine/periodic      187.136328              -1               3 # O_R C_R O_R
   11              cosine/periodic      131.755710              -1               3 # O_R C_R C_R
   12              cosine/periodic      102.183280              -1               3 # C_R C_R C_R
   13              cosine/periodic      118.513834              -1               3 # Zr3+4 O_2 Zr3+4
   14                      fourier      331.855914        0.300235        0.267331        0.266745 # Zr3+4 O_3 Zr3+4
   15                      fourier      122.135708        0.300235        0.267331        0.266745 # Zr3+4 O_3 H_

Dihedral Coeffs

    1        3.368555              -1               2 # H_ C_R C_R H_
    2        6.737110              -1               2 # Zr3+4 O_R C_R O_R
    3        1.250000              -1               2 # O_R C_R C_R C_R

Improper Coeffs

    1        2.000000        1.000000       -1.000000        0.000000               0 # H_ C_R C_R C_R

Pair Coeffs

    1        0.105000        3.430851 # C_R C_R
    2        0.060000        3.118146 # O_R O_R
    3        0.044000        2.571134 # H_ H_
    4        0.069000        2.783168 # Zr3+4 Zr3+4
    5        0.060000        3.118146 # O_2 O_2
    6        0.060000        3.118146 # O_3 O_3

Atoms

       1      444        1     0.00000   12.07470    2.90950    5.41643
       2      444        2     0.00000   19.64343   13.03157    3.30406
       3      444        3     0.00000   12.85335    3.59996    4.95101
       4      444        1     0.00000   12.07470   11.03316   11.16073
       5      444        2     0.00000   19.64343    9.65070    0.91343
       6      444        3     0.00000   12.85335   11.24182   10.35462
       7      444        1     0.00000   17.56010   14.20016    6.68192
       8      444        2     0.00000    9.99137    4.07809    8.79430
       9      444        3     0.00000   16.78145   13.50970    7.14735
      10      444        1     0.00000   17.56010    6.07650    0.93762
      11      444        2     0.00000    9.99137    7.45896   11.18493
      12      444        3     0.00000   16.78145    5.86784    1.74374
      13      444        1     0.00000   11.29975    7.41875    0.93762
      14      444        2     0.00000   16.28136   13.28223   11.18493
      15      444        3     0.00000   11.50838    8.19741    1.74374
      16      444        1     0.00000   18.33505    3.35692    6.68192
      17      444        2     0.00000   13.35344   14.97266    8.79430
      18      444        3     0.00000   18.12642    4.37648    7.14735
      19      444        1     0.00000   18.33505    9.69091   11.16073
      20      444        2     0.00000   13.35344    3.82743    0.91343
      21      444        3     0.00000   18.12642    8.91225   10.35462
      22      444        1     0.00000   11.29975   13.75274    5.41643
      23      444        2     0.00000   16.28136    2.13700    3.30406
      24      444        3     0.00000   11.50838   12.73318    4.95101
      25      444        1     0.00000    8.55705    8.10741    6.68192
      26      444        2     0.00000   21.10739    6.61374    8.79430
      27      444        3     0.00000    9.54433    7.77831    7.14735
      28      444        1     0.00000   15.59235   12.16925    0.93762
      29      444        2     0.00000   18.17947    4.92330   11.18493
      30      444        3     0.00000   16.16238   11.59924    1.74374
      31      444        1     0.00000   21.07775    9.00225    5.41643
      32      444        2     0.00000    8.52741   10.49592    3.30406
      33      444        3     0.00000   20.09047    9.33135    4.95101
      34      444        1     0.00000   14.04245    4.94041   11.16073
      35      444        2     0.00000   11.45533   12.18636    0.91343
      36      444        3     0.00000   13.47242    5.51042   10.35462
      37      444        1     0.00000    8.55705    9.00225    5.41643
      38      444        2     0.00000   21.10739   10.49592    3.30406
      39      444        3     0.00000    9.54433    9.33135    4.95101
      40      444        1     0.00000   15.59235    4.94041   11.16073
      41      444        2     0.00000   18.17947   12.18636    0.91343
      42      444        3     0.00000   16.16238    5.51042   10.35462
      43      444        1     0.00000   21.07775    8.10741    6.68192
      44      444        2     0.00000    8.52741    6.61374    8.79430
      45      444        3     0.00000   20.09047    7.77831    7.14735
      46      444        1     0.00000   14.04245   12.16925    0.93762
      47      444        2     0.00000   11.45533    4.92330   11.18493
      48      444        3     0.00000   13.47242   11.59924    1.74374
      49      444        1     0.00000   12.07470    6.07650    0.93762
      50      444        2     0.00000   19.64343    7.45896   11.18493
      51      444        3     0.00000   12.85335    5.86784    1.74374
      52      444        1     0.00000   12.07470   14.20016    6.68192
      53      444        2     0.00000   19.64343    4.07809    8.79430
      54      444        3     0.00000   12.85335   13.50970    7.14735
      55      444        1     0.00000   17.56010   11.03316   11.16073
      56      444        2     0.00000    9.99137    9.65070    0.91343
      57      444        3     0.00000   16.78145   11.24182   10.35462
      58      444        1     0.00000   17.56010    2.90950    5.41643
      59      444        2     0.00000    9.99137   13.03157    3.30406
      60      444        3     0.00000   16.78145    3.59996    4.95101
      61      444        1     0.00000   11.29975    3.35692    6.68192
      62      444        2     0.00000   16.28136   14.97266    8.79430
      63      444        3     0.00000   11.50838    4.37648    7.14735
      64      444        1     0.00000   18.33505    7.41875    0.93762
      65      444        2     0.00000   13.35344   13.28223   11.18493
      66      444        3     0.00000   18.12642    8.19741    1.74374
      67      444        1     0.00000   18.33505   13.75274    5.41643
      68      444        2     0.00000   13.35344    2.13700    3.30406
      69      444        3     0.00000   18.12642   12.73318    4.95101
      70      444        1     0.00000   11.29975    9.69091   11.16073
      71      444        2     0.00000   16.28136    3.82743    0.91343
      72      444        3     0.00000   11.50838    8.91225   10.35462
      73      444        4     0.00000   20.39319   11.77401    1.49657
      74      444        4     0.00000    9.24161    5.33565   10.60179
      75      444        4     0.00000   14.81740   14.99319   10.60179
      76      444        4     0.00000   14.81740    2.11646    1.49657
      77      444        4     0.00000   20.39319    5.33565   10.60179
      78      444        4     0.00000    9.24161   11.77401    1.49657
      79      444        1     0.00000   12.50144    1.33712    3.78195
      80      444        1     0.00000   11.80502    1.73920    4.91919
      81      444        1     0.00000    5.09274    8.82089    0.00000
      82      444        1     0.00000    4.39632    7.61465    0.00000
      83      444        1     0.00000    9.72466    2.94030    8.31641
      84      444        1     0.00000   10.42108    2.53822    7.17916
      85      444        1     0.00000    2.31596    4.01136    0.00000
      86      444        1     0.00000    3.01238    5.21759    0.00000
      87      444        1     0.00000    9.72466    8.82089    0.00000
      88      444        1     0.00000   10.42108    7.61465    0.00000
      89      444        1     0.00000    5.09274    2.94030    8.31641
      90      444        1     0.00000    4.39632    2.53822    7.17916
      91      444        1     0.00000   12.50144    4.01136    0.00000
      92      444        1     0.00000   11.80502    5.21759    0.00000
      93      444        1     0.00000    2.31596    1.33712    3.78195
      94      444        1     0.00000    3.01238    1.73920    4.91919
      95      444        1     0.00000    7.40870    6.95165    8.31641
      96      444        1     0.00000    7.40870    7.75581    7.17916
      97      444        1     0.00000   10.18548    0.00000    0.00000
      98      444        1     0.00000    8.79265    0.00000    0.00000
      99      444        1     0.00000    7.40870   10.15800    3.78195
     100      444        1     0.00000    7.40870    9.35385    4.91919
     101      444        1     0.00000    4.63192    0.00000    0.00000
     102      444        1     0.00000    6.02475    0.00000    0.00000
     103      444        5     0.00000   12.70740    1.21821    0.86140
     104      444        5     0.00000    7.40870   10.39583    0.86140
     105      444        5     0.00000    7.40870    4.27741    9.51415
     106      444        5     0.00000    2.11000    1.21821    0.86140
     107      444        6     0.00000   22.22610   12.83224    2.58421
     108      444        3     0.00000   22.22603   12.83220    3.39710
     109      444        6     0.00000   27.52480   15.89145   11.23695
     110      444        3     0.00000   26.86098   15.50820   10.96595
     111      444        6     0.00000   16.92740   15.89145   11.23695
     112      444        3     0.00000   17.59107   15.50820   10.96595
     113      444        6     0.00000   22.22610    6.71383   11.23695
     114      444        3     0.00000   22.22603    7.48021   10.96595
     115      444        1     0.00000   19.48340    7.18691   17.51479
     116      444        2     0.00000   27.05213   17.30899   15.40242
     117      444        3     0.00000   20.26205    7.87737   17.04937
     118      444        1     0.00000   19.48340   15.31058   23.25909
     119      444        2     0.00000   27.05213   13.92812   13.01178
     120      444        3     0.00000   20.26205   15.51923   22.45298
     121      444        1     0.00000   24.96880   18.47758   18.78028
     122      444        2     0.00000   17.40007    8.35550   20.89265
     123      444        3     0.00000   24.19015   17.78712   19.24570
     124      444        1     0.00000   24.96880   10.35391   13.03598
     125      444        2     0.00000   17.40007   11.73637   23.28329
     126      444        3     0.00000   24.19015   10.14526   13.84209
     127      444        1     0.00000   18.70845   11.69616   13.03598
     128      444        2     0.00000   23.69006   17.55964   23.28329
     129      444        3     0.00000   18.91708   12.47482   13.84209
     130      444        1     0.00000   25.74375    7.63433   18.78028
     131      444        2     0.00000   20.76214   19.25008   20.89265
     132      444        3     0.00000   25.53512    8.65389   19.24570
     133      444        1     0.00000   25.74375   13.96833   23.25909
     134      444        2     0.00000   20.76214    8.10485   13.01178
     135      444        3     0.00000   25.53512   13.18967   22.45298
     136      444        1     0.00000   18.70845   18.03016   17.51479
     137      444        2     0.00000   23.69006    6.41441   15.40242
     138      444        3     0.00000   18.91708   17.01059   17.04937
     139      444        1     0.00000   15.96575   12.38483   18.78028
     140      444        2     0.00000   28.51609   10.89115   20.89265
     141      444        3     0.00000   16.95303   12.05572   19.24570
     142      444        1     0.00000   23.00105   16.44666   13.03598
     143      444        2     0.00000   25.58817    9.20072   23.28329
     144      444        3     0.00000   23.57108   15.87665   13.84209
     145      444        1     0.00000   28.48645   13.27966   17.51479
     146      444        2     0.00000   15.93611   14.77334   15.40242
     147      444        3     0.00000   27.49917   13.60877   17.04937
     148      444        1     0.00000   21.45115    9.21783   23.25909
     149      444        2     0.00000   18.86403   16.46377   13.01178
     150      444        3     0.00000   20.88112    9.78784   22.45298
     151      444        1     0.00000   15.96575   13.27966   17.51479
     152      444        2     0.00000   28.51609   14.77334   15.40242
     153      444        3     0.00000   16.95303   13.60877   17.04937
     154      444        1     0.00000   23.00105    9.21783   23.25909
     155      444        2     0.00000   25.58817   16.46377   13.01178
     156      444        3     0.00000   23.57108    9.78784   22.45298
     157      444        1     0.00000   28.48645   12.38483   18.78028
     158      444        2     0.00000   15.93611   10.89115   20.89265
     159      444        3     0.00000   27.49917   12.05572   19.24570
     160      444        1     0.00000   21.45115   16.44666   13.03598
     161      444        2     0.00000   18.86403    9.20072   23.28329
     162      444        3     0.00000   20.88112   15.87665   13.84209
     163      444        1     0.00000   19.48340   10.35391   13.03598
     164      444        2     0.00000   27.05213   11.73637   23.28329
     165      444        3     0.00000   20.26205   10.14526   13.84209
     166      444        1     0.00000   19.48340   18.47758   18.78028
     167      444        2     0.00000   27.05213    8.35550   20.89265
     168      444        3     0.00000   20.26205   17.78712   19.24570
     169      444        1     0.00000   24.96880   15.31058   23.25909
     170      444        2     0.00000   17.40007   13.92812   13.01178
     171      444        3     0.00000   24.19015   15.51923   22.45298
     172      444        1     0.00000   24.96880    7.18691   17.51479
     173      444        2     0.00000   17.40007   17.30899   15.40242
     174      444        3     0.00000   24.19015    7.87737   17.04937
     175      444        1     0.00000   18.70845    7.63433   18.78028
     176      444        2     0.00000   23.69006   19.25008   20.89265
     177      444        3     0.00000   18.91708    8.65389   19.24570
     178      444        1     0.00000   25.74375   11.69616   13.03598
     179      444        2     0.00000   20.76214   17.55964   23.28329
     180      444        3     0.00000   25.53512   12.47482   13.84209
     181      444        1     0.00000   25.74375   18.03016   17.51479
     182      444        2     0.00000   20.76214    6.41441   15.40242
     183      444        3     0.00000   25.53512   17.01059   17.04937
     184      444        1     0.00000   18.70845   13.96833   23.25909
     185      444        2     0.00000   23.69006    8.10485   13.01178
     186      444        3     0.00000   18.91708   13.18967   22.45298
     187      444        4     0.00000   27.80189   16.05143   13.59492
     188      444        4     0.00000   16.65031    9.61306   22.70015
     189      444        4     0.00000   22.22610   19.27061   22.70015
     190      444        4     0.00000   22.22610    6.39388   13.59492
     191      444        4     0.00000   27.80189    9.61306   22.70015
     192      444        4     0.00000   16.65031   16.05143   13.59492
     193      444        1     0.00000   19.91014    5.61453   15.88030
     194      444        1     0.00000   19.21372    6.01661   17.01755
     195      444        1     0.00000   12.50144   13.09830   12.09836
     196      444        1     0.00000   11.80502   11.89207   12.09836
     197      444        1     0.00000   17.13336    7.21771   20.41477
     198      444        1     0.00000   17.82978    6.81563   19.27752
     199      444        1     0.00000    9.72466    8.28877   12.09836
     200      444        1     0.00000   10.42108    9.49501   12.09836
     201      444        1     0.00000   17.13336   13.09830   12.09836
     202      444        1     0.00000   17.82978   11.89207   12.09836
     203      444        1     0.00000   12.50144    7.21771   20.41477
     204      444        1     0.00000   11.80502    6.81563   19.27752
     205      444        1     0.00000   19.91014    8.28877   12.09836
     206      444        1     0.00000   19.21372    9.49501   12.09836
     207      444        1     0.00000    9.72466    5.61453   15.88030
     208      444        1     0.00000   10.42108    6.01661   17.01755
     209      444        1     0.00000   14.81740   11.22907   20.41477
     210      444        1     0.00000   14.81740   12.03322   19.27752
     211      444        1     0.00000   17.59418    4.27741   12.09836
     212      444        1     0.00000   16.20135    4.27741   12.09836
     213      444        1     0.00000   14.81740   14.43542   15.88030
     214      444        1     0.00000   14.81740   13.63127   17.01755
     215      444        1     0.00000   12.04062    4.27741   12.09836
     216      444        1     0.00000   13.43345    4.27741   12.09836
     217      444        5     0.00000   20.11610    5.49562   12.95976
     218      444        5     0.00000   14.81740   14.67324   12.95976
     219      444        5     0.00000   14.81740    8.55483   21.61250
     220      444        5     0.00000    9.51870    5.49562   12.95976
     221      444        6     0.00000   29.63480   17.10966   14.68257
     222      444        3     0.00000   29.63473   17.10962   15.49545
     223      444        6     0.00000   34.93350   20.16887   23.33531
     224      444        3     0.00000   34.26968   19.78561   23.06431
     225      444        6     0.00000   24.33610   20.16887   23.33531
     226      444        3     0.00000   24.99977   19.78561   23.06431
     227      444        6     0.00000   29.63480   10.99125   23.33531
     228      444        3     0.00000   29.63473   11.75763   23.06431
     229      444        1     0.00000   26.89210   11.46433   29.61315
     230      444        2     0.00000   34.46083   21.58640   27.50077
     231      444        3     0.00000   27.67075   12.15479   29.14772
     232      444        1     0.00000   26.89210   19.58799   35.35745
     233      444        2     0.00000   34.46083   18.20553   25.11014
     234      444        3     0.00000   27.67075   19.79665   34.55133
     235      444        1     0.00000   32.37750   22.75499   30.87864
     236      444        2     0.00000   24.80877   12.63292   32.99101
     237      444        3     0.00000   31.59885   22.06453   31.34406
     238      444        1     0.00000   32.37750   14.63133   25.13434
     239      444        2     0.00000   24.80877   16.01379   35.38164
     240      444        3     0.00000   31.59885   14.42267   25.94045
     241      444        1     0.00000   26.11715   15.97358   25.13434
     242      444        2     0.00000   31.09876   21.83706   35.38164
     243      444        3     0.00000   26.32578   16.75224   25.94045
     244      444        1     0.00000   33.15245   11.91175   30.87864
     245      444        2     0.00000   28.17084   23.52749   32.99101
     246      444        3     0.00000   32.94382   12.93131   31.34406
     247      444        1     0.00000   33.15245   18.24574   35.35745
     248      444        2     0.00000   28.17084   12.38226   25.11014
     249      444        3     0.00000   32.94382   17.46708   34.55133
     250      444        1     0.00000   26.11715   22.30757   29.61315
     251      444        2     0.00000   31.09876   10.69183   27.50077
     252      444        3     0.00000   26.32578   21.28801   29.14772
     253      444        1     0.00000   23.37445   16.66224   30.87864
     254      444        2     0.00000   35.92479   15.16857   32.99101
     255      444        3     0.00000   24.36173   16.33314   31.34406
     256      444        1     0.00000   30.40975   20.72408   25.13434
     257      444        2     0.00000   32.99687   13.47813   35.38164
     258      444        3     0.00000   30.97978   20.15407   25.94045
     259      444        1     0.00000   35.89515   17.55708   29.61315
     260      444        2     0.00000   23.34481   19.05075   27.50077
     261      444        3     0.00000   34.90787   17.88618   29.14772
     262      444        1     0.00000   28.85985   13.49524   35.35745
     263      444        2     0.00000   26.27273   20.74119   25.11014
     264      444        3     0.00000   28.28982   14.06525   34.55133
     265      444        1     0.00000   23.37445   17.55708   29.61315
     266      444        2     0.00000   35.92479   19.05075   27.50077
     267      444        3     0.00000   24.36173   17.88618   29.14772
     268      444        1     0.00000   30.40975   13.49524   35.35745
     269      444        2     0.00000   32.99687   20.74119   25.11014
     270      444        3     0.00000   30.97978   14.06525   34.55133
     271      444        1     0.00000   35.89515   16.66224   30.87864
     272      444        2     0.00000   23.34481   15.16857   32.99101
     273      444        3     0.00000   34.90787   16.33314   31.34406
     274      444        1     0.00000   28.85985   20.72408   25.13434
     275      444        2     0.00000   26.27273   13.47813   35.38164
     276      444        3     0.00000   28.28982   20.15407   25.94045
     277      444        1     0.00000   26.89210   14.63133   25.13434
     278      444        2     0.00000   34.46083   16.01379   35.38164
     279      444        3     0.00000   27.67075   14.42267   25.94045
     280      444        1     0.00000   26.89210   22.75499   30.87864
     281      444        2     0.00000   34.46083   12.63292   32.99101
     282      444        3     0.00000   27.67075   22.06453   31.34406
     283      444        1     0.00000   32.37750   19.58799   35.35745
     284      444        2     0.00000   24.80877   18.20553   25.11014
     285      444        3     0.00000   31.59885   19.79665   34.55133
     286      444        1     0.00000   32.37750   11.46433   29.61315
     287      444        2     0.00000   24.80877   21.58640   27.50077
     288      444        3     0.00000   31.59885   12.15479   29.14772
     289      444        1     0.00000   26.11715   11.91175   30.87864
     290      444        2     0.00000   31.09876   23.52749   32.99101
     291      444        3     0.00000   26.32578   12.93131   31.34406
     292      444        1     0.00000   33.15245   15.97358   25.13434
     293      444        2     0.00000   28.17084   21.83706   35.38164
     294      444        3     0.00000   32.94382   16.75224   25.94045
     295      444        1     0.00000   33.15245   22.30757   29.61315
     296      444        2     0.00000   28.17084   10.69183   27.50077
     297      444        3     0.00000   32.94382   21.28801   29.14772
     298      444        1     0.00000   26.11715   18.24574   35.35745
     299      444        2     0.00000   31.09876   12.38226   25.11014
     300      444        3     0.00000   26.32578   17.46708   34.55133
     301      444        4     0.00000   35.21059   20.32884   25.69328
     302      444        4     0.00000   24.05901   13.89048   34.79850
     303      444        4     0.00000   29.63480   23.54802   34.79850
     304      444        4     0.00000   29.63480   10.67129   25.69328
     305      444        4     0.00000   35.21059   13.89048   34.79850
     306      444        4     0.00000   24.05901   20.32884   25.69328
     307      444        1     0.00000   27.31884    9.89195   27.97866
     308      444        1     0.00000   26.62242   10.29403   29.11590
     309      444        1     0.00000   19.91014   17.37571   24.19671
     310      444        1     0.00000   19.21372   16.16948   24.19671
     311      444        1     0.00000   24.54206   11.49512   32.51312
     312      444        1     0.00000   25.23848   11.09305   31.37588
     313      444        1     0.00000   17.13336   12.56619   24.19671
     314      444        1     0.00000   17.82978   13.77242   24.19671
     315      444        1     0.00000   24.54206   17.37571   24.19671
     316      444        1     0.00000   25.23848   16.16948   24.19671
     317      444        1     0.00000   19.91014   11.49512   32.51312
     318      444        1     0.00000   19.21372   11.09305   31.37588
     319      444        1     0.00000   27.31884   12.56619   24.19671
     320      444        1     0.00000   26.62242   13.77242   24.19671
     321      444        1     0.00000   17.13336    9.89195   27.97866
     322      444        1     0.00000   17.82978   10.29403   29.11590
     323      444        1     0.00000   22.22610   15.50648   32.51312
     324      444        1     0.00000   22.22610   16.31064   31.37588
     325      444        1     0.00000   25.00288    8.55483   24.19671
     326      444        1     0.00000   23.61005    8.55483   24.19671
     327      444        1     0.00000   22.22610   18.71283   27.97866
     328      444        1     0.00000   22.22610   17.90868   29.11590
     329      444        1     0.00000   19.44932    8.55483   24.19671
     330      444        1     0.00000   20.84215    8.55483   24.19671
     331      444        5     0.00000   27.52480    9.77304   25.05812
     332      444        5     0.00000   22.22610   18.95066   25.05812
     333      444        5     0.00000   22.22610   12.83224   33.71086
     334      444        5     0.00000   16.92740    9.77304   25.05812
     335      444        6     0.00000   37.04350   21.38707   26.78092
     336      444        3     0.00000   37.04343   21.38703   27.59381
     337      444        6     0.00000   42.34220   24.44628   35.43367
     338      444        3     0.00000   41.67838   24.06303   35.16266
     339      444        6     0.00000   31.74480   24.44628   35.43367
     340      444        3     0.00000   32.40847   24.06303   35.16266
     341      444        6     0.00000   37.04350   15.26866   35.43367
     342      444        3     0.00000   37.04343   16.03504   35.16266
     343      444        1     0.00000   19.48340   15.74174    5.41643
     344      444        2     0.00000   27.05213   25.86382    3.30406
     345      444        3     0.00000   20.26205   16.43220    4.95101
     346      444        1     0.00000   19.48340   23.86541   11.16073
     347      444        2     0.00000   27.05213   22.48295    0.91343
     348      444        3     0.00000   20.26205   24.07406   10.35462
     349      444        1     0.00000   24.96880   27.03241    6.68192
     350      444        2     0.00000   17.40007   16.91033    8.79430
     351      444        3     0.00000   24.19015   26.34195    7.14735
     352      444        1     0.00000   24.96880   18.90874    0.93762
     353      444        2     0.00000   17.40007   20.29120   11.18493
     354      444        3     0.00000   24.19015   18.70009    1.74374
     355      444        1     0.00000   18.70845   20.25099    0.93762
     356      444        2     0.00000   23.69006   26.11447   11.18493
     357      444        3     0.00000   18.91708   21.02965    1.74374
     358      444        1     0.00000   25.74375   16.18916    6.68192
     359      444        2     0.00000   20.76214   27.80491    8.79430
     360      444        3     0.00000   25.53512   17.20872    7.14735
     361      444        1     0.00000   25.74375   22.52316   11.16073
     362      444        2     0.00000   20.76214   16.65968    0.91343
     363      444        3     0.00000   25.53512   21.74450   10.35462
     364      444        1     0.00000   18.70845   26.58499    5.41643
     365      444        2     0.00000   23.69006   14.96924    3.30406
     366      444        3     0.00000   18.91708   25.56542    4.95101
     367      444        1     0.00000   15.96575   20.93966    6.68192
     368      444        2     0.00000   28.51609   19.44598    8.79430
     369      444        3     0.00000   16.95303   20.61055    7.14735
     370      444        1     0.00000   23.00105   25.00149    0.93762