Created on Thu Nov 23 15:35:51 2023 

        1392 atoms
        1584 bonds
        3216 angles
        3480 dihedrals
        1152 impropers

           6 atom types
          10 bond types
          19 angle types
           5 dihedral types
           1 improper types
           0.000000  25.667000 xlo xhi
           0.000000  26.152000 ylo yhi
           0.000000  26.072590 zlo zhi
           0.000000  -2.313157   0.000000 xy xz yz

Masses

    1    63.546000000 # Cu3+1
    2    15.999400000 # O_R
    3    14.006700000 # N_R
    4    12.010700000 # C_R
    5    12.010700000 # C_3
    6     1.007940000 # H_

Bond Coeffs

    1      190.026252        1.918161  # Cu3+1 O_R
    2      193.572810        1.971536  # Cu3+1 N_R
    3       57.988603        2.604000  # Cu3+1 Cu3+1
    4      646.680887        1.311940  # O_R C_R
    5      663.718927        1.345073  # N_R C_R
    6      369.943935        1.486000  # C_R C_3
    7      331.069389        1.109401  # C_3 H_
    8      349.795899        1.514000  # C_3 C_3
    9      357.440381        1.081418  # H_ C_R
   10      462.655054        1.379256  # C_R C_R

Angle Coeffs

    1                      fourier      161.688694        0.343737        0.374972        0.281246 # O_R Cu3+1 N_R
    2                      fourier      152.421295        0.343737        0.374972        0.281246 # O_R Cu3+1 O_R
    3                      fourier       68.052595        0.343737        0.374972        0.281246 # O_R Cu3+1 Cu3+1
    4                      fourier       73.199776        0.343737        0.374972        0.281246 # N_R Cu3+1 Cu3+1
    5              cosine/periodic       74.969428              -1               3 # Cu3+1 O_R C_R
    6              cosine/periodic       56.148294              -1               3 # Cu3+1 N_R C_R
    7              cosine/periodic      120.000516              -1               3 # C_R N_R C_R
    8              cosine/periodic      187.136328              -1               3 # O_R C_R O_R
    9              cosine/periodic      127.658657              -1               3 # O_R C_R C_3
   10                      fourier      121.777217        0.343737        0.374972        0.281246 # C_R C_3 H_
   11                      fourier      220.229931        0.343737        0.374972        0.281246 # C_R C_3 C_3
   12                      fourier       75.498766        0.343737        0.374972        0.281246 # H_ C_3 H_
   13                      fourier      117.318683        0.343737        0.374972        0.281246 # H_ C_3 C_3
   14                      fourier      214.211821        0.343737        0.374972        0.281246 # C_3 C_3 C_3
   15              cosine/periodic       79.786967              -1               3 # N_R C_R H_
   16              cosine/periodic      153.699352              -1               3 # N_R C_R C_R
   17              cosine/periodic       57.289016              -1               3 # H_ C_R C_R
   18              cosine/periodic      111.297508              -1               3 # C_R C_R C_R
   19              cosine/periodic       99.137149              -1               3 # C_R C_R C_3

Dihedral Coeffs

    1        6.737110              -1               2 # Cu3+1 O_R C_R O_R
    2        3.368555              -1               2 # Cu3+1 N_R C_R H_
    3        0.166667               1               3 # O_R C_R C_3 H_
    4        0.117722               1               3 # C_R C_3 C_3 H_
    5        0.833333              -1               2 # C_3 C_3 C_R O_R

Improper Coeffs

    1        2.000000        1.000000       -1.000000        0.000000               0 # Cu3+1 N_R C_R C_R

Pair Coeffs

    1        0.005000        3.113691 # Cu3+1 Cu3+1
    2        0.060000        3.118146 # O_R O_R
    3        0.069000        3.260689 # N_R N_R
    4        0.105000        3.430851 # C_R C_R
    5        0.105000        3.430851 # C_3 C_3
    6        0.044000        2.571134 # H_ H_

Atoms

       1      444        1     0.00000    7.46352    3.88017    0.53727
       2      444        2     0.00000    6.27517    3.81937    2.11362
       3      444        2     0.00000    4.48432    2.84011    1.21759
       4      444        2     0.00000    4.41552    8.56596    3.40769
       5      444        2     0.00000    6.17738    7.53478    4.28633
       6      444        3     0.00000    9.01802    4.78582    1.76859
       7      444        4     0.00000    5.08132    3.43245    2.15794
       8      444        5     0.00000    4.29396    3.72274    3.42681
       9      444        6     0.00000    4.41226    2.98787    4.04907
      10      444        6     0.00000    3.34977    3.77766    3.20867
      11      444        5     0.00000    4.72796    5.02511    4.10122
      12      444        6     0.00000    4.21483    5.15064    4.91468
      13      444        6     0.00000    5.66426    4.96234    4.34456
      14      444        5     0.00000    4.52445    6.22679    3.18955
      15      444        6     0.00000    4.92925    6.02673    2.33002
      16      444        6     0.00000    3.57240    6.33794    3.04267
      17      444        4     0.00000    5.08725    7.54747    3.68232
      18      444        4     0.00000    9.93500    4.03787    2.35696
      19      444        6     0.00000    9.97748    3.13693    2.13274
      20      444        4     0.00000   10.82738    4.52168    3.28341
      21      444        6     0.00000   11.46493    3.95287    3.65103
      22      444        4     0.00000   10.78260    5.83320    3.66668
      23      444        4     0.00000    9.81092    6.62430    3.04962
      24      444        6     0.00000    9.74098    7.52655    3.26516
      25      444        4     0.00000    8.96510    6.07642    2.13361
      26      444        6     0.00000    8.32065    6.62299    1.74252
      27      444        5     0.00000   11.77387    6.40332    4.65309
      28      444        6     0.00000   11.42096    7.23103    5.01463
      29      444        6     0.00000   11.88053    5.78090    5.38920
      30      444        1     0.00000   20.29702   10.41817    0.53727
      31      444        2     0.00000   19.10867   10.35737    2.11362
      32      444        2     0.00000   17.31782    9.37811    1.21759
      33      444        2     0.00000   17.24902    2.02796    3.40769
      34      444        2     0.00000   19.01088    0.99678    4.28633
      35      444        3     0.00000   21.85152   11.32382    1.76859
      36      444        4     0.00000   17.91482    9.97045    2.15794
      37      444        5     0.00000   17.12746   10.26074    3.42681
      38      444        6     0.00000   17.24576    9.52587    4.04907
      39      444        6     0.00000   16.18327   10.31566    3.20867
      40      444        5     0.00000   17.56146   11.56311    4.10122
      41      444        6     0.00000   17.04833   11.68864    4.91468
      42      444        6     0.00000   18.49776   11.50034    4.34456
      43      444        5     0.00000   17.35795   12.76479    3.18955
      44      444        6     0.00000   17.76275   12.56473    2.33002
      45      444        6     0.00000   16.40590   12.87594    3.04267
      46      444        4     0.00000   17.92075    1.00947    3.68232
      47      444        4     0.00000   22.76850   10.57587    2.35696
      48      444        6     0.00000   22.81098    9.67493    2.13274
      49      444        4     0.00000   23.66088   11.05968    3.28341
      50      444        6     0.00000   24.29843   10.49087    3.65103
      51      444        4     0.00000   23.61610   12.37120    3.66668
      52      444        4     0.00000   22.64442    0.08630    3.04962
      53      444        6     0.00000   22.57448    0.98855    3.26516
      54      444        4     0.00000   21.79860   12.61442    2.13361
      55      444        6     0.00000   21.15415    0.08499    1.74252
      56      444        5     0.00000   24.60737   12.94132    4.65309
      57      444        6     0.00000   24.25446    0.69303    5.01463
      58      444        6     0.00000   24.71403   12.31890    5.38920
      59      444        1     0.00000   17.81795    3.88017    3.80816
      60      444        2     0.00000   19.00630    3.81937    2.23181
      61      444        2     0.00000   20.79716    2.84011    3.12784
      62      444        2     0.00000   20.86595    8.56596    0.93774
      63      444        2     0.00000   19.10410    7.53478    0.05910
      64      444        3     0.00000   16.26346    4.78582    2.57684
      65      444        4     0.00000   20.20015    3.43245    2.18749
      66      444        5     0.00000   20.98751    3.72274    0.91862
      67      444        6     0.00000   20.86921    2.98787    0.29636
      68      444        6     0.00000   21.93170    3.77766    1.13676
      69      444        5     0.00000   20.55351    5.02511    0.24421
      70      444        6     0.00000   20.29559    5.15064    8.12161
      71      444        6     0.00000   19.61721    4.96234    0.00087
      72      444        5     0.00000   20.75702    6.22679    1.15588
      73      444        6     0.00000   20.35223    6.02673    2.01541
      74      444        6     0.00000   21.70907    6.33794    1.30276
      75      444        4     0.00000   20.19423    7.54747    0.66311
      76      444        4     0.00000   15.34647    4.03787    1.98847
      77      444        6     0.00000   15.30399    3.13693    2.21269
      78      444        4     0.00000   14.45409    4.52168    1.06202
      79      444        6     0.00000   13.81654    3.95287    0.69440
      80      444        4     0.00000   14.49887    5.83320    0.67876
      81      444        4     0.00000   15.47055    6.62430    1.29581
      82      444        6     0.00000   15.54049    7.52655    1.08027
      83      444        4     0.00000   16.31637    6.07642    2.21182
      84      444        6     0.00000   16.96083    6.62299    2.60291
      85      444        5     0.00000   12.73655    6.40332    8.38321
      86      444        6     0.00000   13.08946    7.23103    8.02167
      87      444        6     0.00000   12.62989    5.78090    7.64709
      88      444        1     0.00000    4.98445   10.41817    3.80816
      89      444        2     0.00000    6.17280   10.35737    2.23181
      90      444        2     0.00000    7.96366    9.37811    3.12784
      91      444        2     0.00000    8.03245    2.02796    0.93774
      92      444        2     0.00000    6.27060    0.99678    0.05910
      93      444        3     0.00000    3.42996   11.32382    2.57684
      94      444        4     0.00000    7.36665    9.97045    2.18749
      95      444        5     0.00000    8.15401   10.26074    0.91862
      96      444        6     0.00000    8.03571    9.52587    0.29636
      97      444        6     0.00000    9.09820   10.31566    1.13676
      98      444        5     0.00000    7.72001   11.56311    0.24421
      99      444        6     0.00000    7.46209   11.68864    8.12161
     100      444        6     0.00000    6.78371   11.50034    0.00087
     101      444        5     0.00000    7.92352   12.76479    1.15588
     102      444        6     0.00000    7.51873   12.56473    2.01541
     103      444        6     0.00000    8.87557   12.87594    1.30276
     104      444        4     0.00000    7.36073    1.00947    0.66311
     105      444        4     0.00000    2.51297   10.57587    1.98847
     106      444        6     0.00000    2.47049    9.67493    2.21269
     107      444        4     0.00000    1.62059   11.05968    1.06202
     108      444        6     0.00000    0.98304   10.49087    0.69440
     109      444        4     0.00000    1.66537   12.37120    0.67876
     110      444        4     0.00000    2.63705    0.08630    1.29581
     111      444        6     0.00000    2.70699    0.98855    1.08027
     112      444        4     0.00000    3.48287   12.61442    2.21182
     113      444        6     0.00000    4.12733    0.08499    2.60291
     114      444        5     0.00000   -0.09695   12.94132    8.38321
     115      444        6     0.00000    0.25596    0.69303    8.02167
     116      444        6     0.00000   -0.20361   12.31890    7.64709
     117      444        1     0.00000   17.43242    9.19583    8.15359
     118      444        2     0.00000   18.62077    9.25663    6.57725
     119      444        2     0.00000   20.41163   10.23589    7.47327
     120      444        2     0.00000   20.48043    4.51004    5.28318
     121      444        2     0.00000   18.71857    5.54122    4.40453
     122      444        3     0.00000   15.87793    8.29018    6.92227
     123      444        4     0.00000   19.81463    9.64355    6.53292
     124      444        5     0.00000   20.60199    9.35326    5.26406
     125      444        6     0.00000   20.48369   10.08813    4.64179
     126      444        6     0.00000   21.54617    9.29834    5.48220
     127      444        5     0.00000   20.16799    8.05089    4.58964
     128      444        6     0.00000   20.68112    7.92536    3.77618
     129      444        6     0.00000   19.23168    8.11366    4.34630
     130      444        5     0.00000   20.37149    6.84921    5.50132
     131      444        6     0.00000   19.96670    7.04927    6.36084
     132      444        6     0.00000   21.32354    6.73806    5.64819
     133      444        4     0.00000   19.80870    5.52853    5.00854
     134      444        4     0.00000   14.96095    9.03813    6.33390
     135      444        6     0.00000   14.91847    9.93907    6.55813
     136      444        4     0.00000   14.06856    8.55432    5.40746
     137      444        6     0.00000   13.43101    9.12313    5.03983
     138      444        4     0.00000   14.11335    7.24280    5.02419
     139      444        4     0.00000   15.08503    6.45170    5.64124
     140      444        6     0.00000   15.15497    5.54945    5.42571
     141      444        4     0.00000   15.93085    6.99958    6.55726
     142      444        6     0.00000   16.57530    6.45301    6.94835
     143      444        5     0.00000   13.12208    6.67268    4.03778
     144      444        6     0.00000   13.47499    5.84497    3.67624
     145      444        6     0.00000   13.01542    7.29510    3.30166
     146      444        1     0.00000    4.59892    2.65783    8.15359
     147      444        2     0.00000    5.78727    2.71863    6.57725
     148      444        2     0.00000    7.57813    3.69789    7.47327
     149      444        2     0.00000    7.64693   11.04804    5.28318
     150      444        2     0.00000    5.88507   12.07922    4.40453
     151      444        3     0.00000    3.04443    1.75218    6.92227
     152      444        4     0.00000    6.98113    3.10555    6.53292
     153      444        5     0.00000    7.76849    2.81526    5.26406
     154      444        6     0.00000    7.65019    3.55013    4.64179
     155      444        6     0.00000    8.71267    2.76034    5.48220
     156      444        5     0.00000    7.33449    1.51289    4.58964
     157      444        6     0.00000    7.84762    1.38736    3.77618
     158      444        6     0.00000    6.39818    1.57566    4.34630
     159      444        5     0.00000    7.53799    0.31121    5.50132
     160      444        6     0.00000    7.13320    0.51127    6.36084
     161      444        6     0.00000    8.49004    0.20006    5.64819
     162      444        4     0.00000    6.97520   12.06653    5.00854
     163      444        4     0.00000    2.12745    2.50013    6.33390
     164      444        6     0.00000    2.08497    3.40107    6.55813
     165      444        4     0.00000    1.23506    2.01632    5.40746
     166      444        6     0.00000    0.59751    2.58513    5.03983
     167      444        4     0.00000    1.27985    0.70480    5.02419
     168      444        4     0.00000    2.25153   12.98970    5.64124
     169      444        6     0.00000    2.32147   12.08745    5.42571
     170      444        4     0.00000    3.09735    0.46158    6.55726
     171      444        6     0.00000    3.74180   12.99101    6.94835
     172      444        5     0.00000    0.28858    0.13468    4.03778
     173      444        6     0.00000    0.64149   12.38297    3.67624
     174      444        6     0.00000    0.18192    0.75710    3.30166
     175      444        1     0.00000    7.07800    9.19583    4.88270
     176      444        2     0.00000    5.88965    9.25663    6.45905
     177      444        2     0.00000    4.09879   10.23589    5.56302
     178      444        2     0.00000    4.03000    4.51004    7.75312
     179      444        2     0.00000    5.79185    5.54122    8.63177
     180      444        3     0.00000    8.63249    8.29018    6.11402
     181      444        4     0.00000    4.69579    9.64355    6.50337
     182      444        5     0.00000    3.90843    9.35326    7.77224
     183      444        6     0.00000    4.02674   10.08813    8.39450
     184      444        6     0.00000    2.96425    9.29834    7.55410
     185      444        5     0.00000    4.34243    8.05089    8.44665
     186      444        6     0.00000    4.60036    7.92536    0.56925
     187      444        6     0.00000    5.27874    8.11366    8.68999
     188      444        5     0.00000    4.13893    6.84921    7.53498
     189      444        6     0.00000    4.54372    7.04927    6.67545
     190      444        6     0.00000    3.18688    6.73806    7.38810
     191      444        4     0.00000    4.70172    5.52853    8.02775
     192      444        4     0.00000    9.54948    9.03813    6.70239
     193      444        6     0.00000    9.59196    9.93907    6.47817
     194      444        4     0.00000   10.44186    8.55432    7.62884
     195      444        6     0.00000   11.07941    9.12313    7.99646
     196      444        4     0.00000   10.39707    7.24280    8.01211
     197      444        4     0.00000    9.42540    6.45170    7.39506
     198      444        6     0.00000    9.35545    5.54945    7.61059
     199      444        4     0.00000    8.57957    6.99958    6.47904
     200      444        6     0.00000    7.93512    6.45301    6.08795
     201      444        5     0.00000   12.15940    6.67268    0.30766
     202      444        6     0.00000   11.80648    5.84497    0.66920
     203      444        6     0.00000   12.26606    7.29510    1.04377
     204      444        1     0.00000   19.91150    2.65783    4.88270
     205      444        2     0.00000   18.72315    2.71863    6.45905
     206      444        2     0.00000   16.93229    3.69789    5.56302
     207      444        2     0.00000   16.86350   11.04804    7.75312
     208      444        2     0.00000   18.62535   12.07922    8.63177
     209      444        3     0.00000   21.46599    1.75218    6.11402
     210      444        4     0.00000   17.52929    3.10555    6.50337
     211      444        5     0.00000   16.74193    2.81526    7.77224
     212      444        6     0.00000   16.86024    3.55013    8.39450
     213      444        6     0.00000   15.79775    2.76034    7.55410
     214      444        5     0.00000   17.17593    1.51289    8.44665
     215      444        6     0.00000   17.43386    1.38736    0.56925
     216      444        6     0.00000   18.11224    1.57566    8.68999
     217      444        5     0.00000   16.97243    0.31121    7.53498
     218      444        6     0.00000   17.37722    0.51127    6.67545
     219      444        6     0.00000   16.02038    0.20006    7.38810
     220      444        4     0.00000   17.53522   12.06653    8.02775
     221      444        4     0.00000   22.38298    2.50013    6.70239
     222      444        6     0.00000   22.42546    3.40107    6.47817
     223      444        4     0.00000   23.27536    2.01632    7.62884
     224      444        6     0.00000   23.91291    2.58513    7.99646
     225      444        4     0.00000   23.23057    0.70480    8.01211
     226      444        4     0.00000   22.25890   12.98970    7.39506
     227      444        6     0.00000   22.18895   12.08745    7.61059
     228      444        4     0.00000   21.41307    0.46158    6.47904
     229      444        6     0.00000   20.76862   12.99101    6.08795
     230      444        5     0.00000   24.99290    0.13468    0.30766
     231      444        6     0.00000   24.63998   12.38297    0.66920
     232      444        6     0.00000   25.09956    0.75710    1.04377
     233      444        1     0.00000    6.69247    3.88017    9.22813
     234      444        2     0.00000    5.50412    3.81937   10.80448
     235      444        2     0.00000    3.71326    2.84011    9.90845
     236      444        2     0.00000    3.64447    8.56596   12.09855
     237      444        2     0.00000    5.40633    7.53478   12.97720
     238      444        3     0.00000    8.24696    4.78582   10.45945
     239      444        4     0.00000    4.31027    3.43245   10.84880
     240      444        5     0.00000    3.52291    3.72274   12.11767
     241      444        6     0.00000    3.64121    2.98787   12.73994
     242      444        6     0.00000    2.57872    3.77766   11.89953
     243      444        5     0.00000    3.95691    5.02511   12.79208
     244      444        6     0.00000    3.44378    5.15064   13.60555
     245      444        6     0.00000    4.89321    4.96234   13.03543
     246      444        5     0.00000    3.75340    6.22679   11.88041
     247      444        6     0.00000    4.15820    6.02673   11.02088
     248      444        6     0.00000    2.80135    6.33794   11.73353
     249      444        4     0.00000    4.31619    7.54747   12.37318
     250      444        4     0.00000    9.16395    4.03787   11.04783
     251      444        6     0.00000    9.20643    3.13693   10.82360
     252      444        4     0.00000   10.05633    4.52168   11.97427
     253      444        6     0.00000   10.69388    3.95287   12.34189
     254      444        4     0.00000   10.01155    5.83320   12.35754
     255      444        4     0.00000    9.03987    6.62430   11.74049
     256      444        6     0.00000    8.96993    7.52655   11.95602
     257      444        4     0.00000    8.19405    6.07642   10.82447
     258      444        6     0.00000    7.54960    6.62299   10.43338
     259      444        5     0.00000   11.00282    6.40332   13.34395
     260      444        6     0.00000   10.64990    7.23103   13.70549
     261      444        6     0.00000   11.10948    5.78090   14.08007
     262      444        1     0.00000   19.52597   10.41817    9.22813
     263      444        2     0.00000   18.33762   10.35737   10.80448
     264      444        2     0.00000   16.54676    9.37811    9.90845
     265      444        2     0.00000   16.47797    2.02796   12.09855
     266      444        2     0.00000   18.23983    0.99678   12.97720
     267      444        3     0.00000   21.08046   11.32382   10.45945
     268      444        4     0.00000   17.14377    9.97045   10.84880
     269      444        5     0.00000   16.35641   10.26074   12.11767
     270      444        6     0.00000   16.47471    9.52587   12.73994
     271      444        6     0.00000   15.41222   10.31566   11.89953
     272      444        5     0.00000   16.79041   11.56311   12.79208
     273      444        6     0.00000   16.27728   11.68864   13.60555
     274      444        6     0.00000   17.72671   11.50034   13.03543
     275      444        5     0.00000   16.58690   12.76479   11.88041
     276      444        6     0.00000   16.99170   12.56473   11.02088
     277      444        6     0.00000   15.63485   12.87594   11.73353
     278      444        4     0.00000   17.14969    1.00947   12.37318
     279      444        4     0.00000   21.99745   10.57587   11.04783
     280      444        6     0.00000   22.03993    9.67493   10.82360
     281      444        4     0.00000   22.88983   11.05968   11.97427
     282      444        6     0.00000   23.52738   10.49087   12.34189
     283      444        4     0.00000   22.84505   12.37120   12.35754
     284      444        4     0.00000   21.87337    0.08630   11.74049
     285      444        6     0.00000   21.80343    0.98855   11.95602
     286      444        4     0.00000   21.02755   12.61442   10.82447
     287      444        6     0.00000   20.38310    0.08499   10.43338
     288      444        5     0.00000   23.83632   12.94132   13.34395
     289      444        6     0.00000   23.48340    0.69303   13.70549
     290      444        6     0.00000   23.94298   12.31890   14.08007
     291      444        1     0.00000   17.04690    3.88017   12.49903
     292      444        2     0.00000   18.23525    3.81937   10.92268
     293      444        2     0.00000   20.02611    2.84011   11.81870
     294      444        2     0.00000   20.09490    8.56596    9.62861
     295      444        2     0.00000   18.33304    7.53478    8.74996
     296      444        3     0.00000   15.49240    4.78582   11.26770
     297      444        4     0.00000   19.42910    3.43245   10.87835
     298      444        5     0.00000   20.21646    3.72274    9.60949
     299      444        6     0.00000   20.09816    2.98787    8.98722
     300      444        6     0.00000   21.16065    3.77766    9.82763
     301      444        5     0.00000   19.78246    5.02511    8.93508
     302      444        6     0.00000   19.52454    5.15064   16.81247
     303      444        6     0.00000   18.84616    4.96234    8.69173
     304      444        5     0.00000   19.98597    6.22679    9.84675
     305      444        6     0.00000   19.58117    6.02673   10.70627
     306      444        6     0.00000   20.93802    6.33794    9.99362
     307      444        4     0.00000   19.42318    7.54747    9.35398
     308      444        4     0.00000   14.57542    4.03787   10.67933
     309      444        6     0.00000   14.53294    3.13693   10.90356
     310      444        4     0.00000   13.68304    4.52168    9.75289
     311      444        6     0.00000   13.04549    3.95287    9.38526
     312      444        4     0.00000   13.72782    5.83320    9.36962
     313      444        4     0.00000   14.69950    6.62430    9.98667
     314      444        6     0.00000   14.76944    7.52655    9.77114
     315      444        4     0.00000   15.54532    6.07642   10.90269
     316      444        6     0.00000   16.18977    6.62299   11.29378
     317      444        5     0.00000   11.96550    6.40332   17.07407
     318      444        6     0.00000   12.31841    7.23103   16.71253
     319      444        6     0.00000   11.85884    5.78090   16.33795
     320      444        1     0.00000    4.21340   10.41817   12.49903
     321      444        2     0.00000    5.40175   10.35737   10.92268
     322      444        2     0.00000    7.19261    9.37811   11.81870
     323      444        2     0.00000    7.26140    2.02796    9.62861
     324      444        2     0.00000    5.49954    0.99678    8.74996
     325      444        3     0.00000    2.65890   11.32382   11.26770
     326      444        4     0.00000    6.59560    9.97045   10.87835
     327      444        5     0.00000    7.38296   10.26074    9.60949
     328      444        6     0.00000    7.26466    9.52587    8.98722
     329      444        6     0.00000    8.32715   10.31566    9.82763
     330      444        5     0.00000    6.94896   11.56311    8.93508
     331      444        6     0.00000    6.69104   11.68864   16.81247
     332      444        6     0.00000    6.01266   11.50034    8.69173
     333      444        5     0.00000    7.15247   12.76479    9.84675
     334      444        6     0.00000    6.74767   12.56473   10.70627
     335      444        6     0.00000    8.10452   12.87594    9.99362
     336      444        4     0.00000    6.58968    1.00947    9.35398
     337      444        4     0.00000    1.74192   10.57587   10.67933
     338      444        6     0.00000    1.69944    9.67493   10.90356
     339      444        4     0.00000    0.84954   11.05968    9.75289
     340      444        6     0.00000    0.21199   10.49087    9.38526
     341      444        4     0.00000    0.89432   12.37120    9.36962
     342      444        4     0.00000    1.86600    0.08630    9.98667
     343      444        6     0.00000    1.93594    0.98855    9.77114
     344      444        4     0.00000    2.71182   12.61442   10.90269
     345      444        6     0.00000    3.35627    0.08499   11.29378
     346      444        5     0.00000   -0.86800   12.94132   17.07407
     347      444        6     0.00000   -0.51509    0.69303   16.71253
     348      444        6     0.00000   -0.97466   12.31890   16.33795
     349      444        1     0.00000   16.66137    9.19583   16.84446
     350      444        2     0.00000   17.84972    9.25663   15.26811
     351      444        2     0.00000   19.64058   10.23589   16.16414
     352      444        2     0.00000   19.70937    4.51004   13.97404
     353      444        2     0.00000   17.94752    5.54122   13.09539
     354      444        3     0.00000   15.10688    8.29018   15.61314
     355      444        4     0.00000   19.04358    9.64355   15.22379
     356      444        5     0.00000   19.83093    9.35326   13.95492
     357      444        6     0.00000   19.71263   10.08813   13.33265
     358      444        6     0.00000   20.77512    9.29834   14.17306
     359      444        5     0.00000   19.39694    8.05089   13.28051
     360      444        6     0.00000   19.91007    7.92536   12.46704
     361      444        6     0.00000   18.46063    8.11366   13.03716