units           real
atom_style      full
boundary        p p p

pair_style      lj/cut 12.500
bond_style      harmonic
angle_style     hybrid cosine/periodic fourier
dihedral_style  harmonic
improper_style  fourier

pair_modify     tail yes mix arithmetic
dielectric      1.0
special_bonds   lj/coul 0.0 0.0 1.0
box tilt        large

The 'box' command has been removed and will be ignored

read_data       data.IRMOF-1
Reading data file ...
  triclinic box = (0 0 0) to (25.832 25.832 25.832) with tilt (0 0 0)
  2 by 2 by 2 MPI processor grid
  reading atoms ...
  424 atoms
  scanning bonds ...
  4 = max bonds/atom
  scanning angles ...
  6 = max angles/atom
  scanning dihedrals ...
  8 = max dihedrals/atom
  scanning impropers ...
  3 = max impropers/atom
  reading bonds ...
  512 bonds
  reading angles ...
  912 angles
  reading dihedrals ...
  960 dihedrals
  reading impropers ...
  576 impropers
Finding 1-2 1-3 1-4 neighbors ...
  special bond factors lj:    0        0        1       
  special bond factors coul:  0        0        1       
     4 = max # of 1-2 neighbors
    12 = max # of 1-3 neighbors
    16 = max # of special neighbors
  special bonds CPU = 0.000 seconds
  read_data CPU = 0.041 seconds

#### Atom Groupings ####
group           fram     id   1:424
424 atoms in group fram
#### END Atom Groupings ####


#############################  Equilibration  ###################################
thermo_style 	custom step temp vol
minimize        0.0 1.0e-3 1000 1000
Generated 10 of 10 mixed pair_coeff terms from arithmetic mixing rule
Neighbor list info ...
  update: every = 1 steps, delay = 0 steps, check = yes
  max neighbors/atom: 2000, page size: 100000
  master list distance cutoff = 14.5
  ghost atom cutoff = 14.5
  binsize = 7.25, bins = 4 4 4
  1 neighbor lists, perpetual/occasional/extra = 1 0 0
  (1) pair lj/cut, perpetual
      attributes: half, newton on
      pair build: half/bin/newton/tri
      stencil: half/bin/3d/tri
      bin: standard
WARNING: Inconsistent image flags (../domain.cpp:815)
Per MPI rank memory allocation (min/avg/max) = 13.54 | 13.54 | 13.54 Mbytes
   Step          Temp          Volume    
         0   0              17237.493    
        14   0              17237.493    
Loop time of 0.0125656 on 8 procs for 14 steps with 424 atoms

96.8% CPU use with 8 MPI tasks x no OpenMP threads

Minimization stats:
  Stopping criterion = force tolerance
  Energy initial, next-to-last, final = 
      696.897137151284   696.893213134488   696.893213132657
  Force two-norm initial, final = 4.6169032 0.00083719479
  Force max component initial, final = 0.35089559 5.0072537e-05
  Final line search alpha, max atom move = 1 5.0072537e-05
  Iterations, force evaluations = 14 28

MPI task timing breakdown:
Section |  min time  |  avg time  |  max time  |%varavg| %total
---------------------------------------------------------------
Pair    | 0.0036444  | 0.0044429  | 0.005101   |   0.8 | 35.36
Bond    | 0.00049711 | 0.00060118 | 0.00068156 |   0.0 |  4.78
Neigh   | 0          | 0          | 0          |   0.0 |  0.00
Comm    | 0.006132   | 0.0069389  | 0.0077702  |   0.7 | 55.22
Output  | 0          | 0          | 0          |   0.0 |  0.00
Modify  | 0          | 0          | 0          |   0.0 |  0.00
Other   |            | 0.0005826  |            |       |  4.64

Nlocal:             53 ave          53 max          53 min
Histogram: 8 0 0 0 0 0 0 0 0 0
Nghost:           1648 ave        1648 max        1648 min
Histogram: 8 0 0 0 0 0 0 0 0 0
Neighs:           7599 ave        7599 max        7599 min
Histogram: 8 0 0 0 0 0 0 0 0 0

Total # of neighbors = 60792
Ave neighs/atom = 143.37736
Ave special neighs/atom = 6.7169811
Neighbor list builds = 0
Dangerous builds = 0
velocity        all create ${t} 331989 rot yes dist gaussian
velocity        all create 100 331989 rot yes dist gaussian

fix             1 all nvt temp ${t} ${t} ${tdamp}
fix             1 all nvt temp 100 ${t} ${tdamp}
fix             1 all nvt temp 100 100 ${tdamp}
fix             1 all nvt temp 100 100 100
thermo          1000
run             ${d1}
run             200000
Generated 10 of 10 mixed pair_coeff terms from arithmetic mixing rule
WARNING: Inconsistent image flags (../domain.cpp:815)
Per MPI rank memory allocation (min/avg/max) = 12.42 | 12.42 | 12.42 Mbytes
   Step          Temp          Volume    
        14   100            17237.493    
      1000   95.246822      17237.493    
      2000   98.28435       17237.493    
      3000   102.19225      17237.493    
      4000   103.22357      17237.493    
      5000   102.17178      17237.493    
      6000   99.752988      17237.493    
      7000   94.138895      17237.493    
      8000   98.641608      17237.493    
      9000   99.387397      17237.493    
     10000   105.60381      17237.493    
     11000   96.015276      17237.493    
     12000   100.3785       17237.493    
     13000   95.508746      17237.493    
     14000   98.25573       17237.493    
     15000   98.465726      17237.493    
     16000   98.264201      17237.493    
     17000   98.515566      17237.493    
     18000   104.08851      17237.493    
     19000   97.846731      17237.493    
     20000   98.320159      17237.493    
     21000   103.79857      17237.493    
     22000   97.815455      17237.493    
     23000   100.46869      17237.493    
     24000   103.15682      17237.493    
     25000   102.42972      17237.493    
     26000   95.862174      17237.493    
     27000   97.594919      17237.493    
     28000   103.17399      17237.493    
     29000   91.941978      17237.493    
     30000   101.11957      17237.493    
     31000   96.367988      17237.493    
     32000   95.648548      17237.493    
     33000   106.09793      17237.493    
     34000   101.87759      17237.493    
     35000   96.753932      17237.493    
     36000   105.29485      17237.493    
     37000   103.68694      17237.493    
     38000   103.87457      17237.493    
     39000   92.406127      17237.493    
     40000   101.89196      17237.493    
     41000   100.46644      17237.493    
     42000   96.869176      17237.493    
     43000   102.98282      17237.493    
     44000   101.12112      17237.493    
     45000   103.56438      17237.493    
     46000   94.050298      17237.493    
     47000   97.480625      17237.493    
     48000   99.369584      17237.493    
     49000   97.267385      17237.493    
     50000   100.52429      17237.493    
     51000   103.51609      17237.493    
     52000   95.864866      17237.493    
     53000   98.370656      17237.493    
     54000   102.20261      17237.493    
     55000   98.038856      17237.493    
     56000   95.673403      17237.493    
     57000   97.911387      17237.493    
     58000   105.78006      17237.493    
     59000   95.303063      17237.493    
     60000   102.93229      17237.493    
     61000   99.557648      17237.493    
     62000   101.3445       17237.493    
     63000   97.675504      17237.493    
     64000   93.286         17237.493    
     65000   99.573653      17237.493    
     66000   95.095161      17237.493    
     67000   97.718009      17237.493    
     68000   107.81213      17237.493    
     69000   94.285772      17237.493    
     70000   102.28288      17237.493    
     71000   100.52005      17237.493    
     72000   102.10712      17237.493    
     73000   102.26719      17237.493    
     74000   95.878786      17237.493    
     75000   92.964041      17237.493    
     76000   97.795549      17237.493    
     77000   100.91011      17237.493    
     78000   97.165741      17237.493    
     79000   102.42575      17237.493    
     80000   106.98568      17237.493    
     81000   99.386757      17237.493    
     82000   103.83077      17237.493    
     83000   100.6761       17237.493    
     84000   95.786886      17237.493    
     85000   100.11705      17237.493    
     86000   104.72729      17237.493    
     87000   96.61766       17237.493    
     88000   101.33019      17237.493    
     89000   101.1458       17237.493    
     90000   106.01209      17237.493    
     91000   100.90039      17237.493    
     92000   105.42977      17237.493    
     93000   97.460106      17237.493    
     94000   94.847095      17237.493    
     95000   97.58579       17237.493    
     96000   101.35316      17237.493    
     97000   90.291402      17237.493    
     98000   103.65163      17237.493    
     99000   91.907231      17237.493    
    100000   97.89159       17237.493    
    101000   95.909834      17237.493    
    102000   98.063662      17237.493    
    103000   107.9182       17237.493    
    104000   100.93995      17237.493    
    105000   100.1093       17237.493    
    106000   97.563935      17237.493    
    107000   98.111734      17237.493    
    108000   98.328508      17237.493    
    109000   101.46626      17237.493    
    110000   100.62457      17237.493    
    111000   100.54619      17237.493    
    112000   94.06937       17237.493    
    113000   99.89806       17237.493    
    114000   100.99696      17237.493    
    115000   101.11215      17237.493    
    116000   107.92506      17237.493    
    117000   107.39309      17237.493    
    118000   96.073516      17237.493    
    119000   98.399197      17237.493    
    120000   99.380636      17237.493    
    121000   107.99255      17237.493    
    122000   94.798722      17237.493    
    123000   97.46689       17237.493    
    124000   104.85436      17237.493    
    125000   99.282302      17237.493    
    126000   97.706095      17237.493    
    127000   97.862458      17237.493    
    128000   104.43375      17237.493    
    129000   97.141531      17237.493    
    130000   105.89538      17237.493    
    131000   98.869393      17237.493    
    132000   105.45035      17237.493    
    133000   96.909912      17237.493    
    134000   92.864526      17237.493    
    135000   101.88796      17237.493    
    136000   102.35215      17237.493    
    137000   98.405524      17237.493    
    138000   98.357252      17237.493    
    139000   93.354855      17237.493    
    140000   104.80113      17237.493    
    141000   94.259918      17237.493    
    142000   102.95033      17237.493    
    143000   96.954133      17237.493    
    144000   102.52613      17237.493    
    145000   92.501441      17237.493    
    146000   99.829076      17237.493    
    147000   101.16725      17237.493    
    148000   102.26572      17237.493    
    149000   100.19194      17237.493    
    150000   98.306177      17237.493    
    151000   102.59338      17237.493    
    152000   99.56705       17237.493    
    153000   97.758413      17237.493    
    154000   103.57558      17237.493    
    155000   93.726256      17237.493    
    156000   99.993577      17237.493    
    157000   104.03026      17237.493    
    158000   97.17228       17237.493    
    159000   100.50542      17237.493    
    160000   96.372409      17237.493    
    161000   103.7369       17237.493    
    162000   99.123472      17237.493    
    163000   101.87531      17237.493    
    164000   108.38691      17237.493    
    165000   94.911839      17237.493    
    166000   102.55719      17237.493    
    167000   96.1348        17237.493    
    168000   101.8309       17237.493    
    169000   105.84819      17237.493    
    170000   101.45022      17237.493    
    171000   101.97618      17237.493    
    172000   102.04454      17237.493    
    173000   99.440273      17237.493    
    174000   99.836996      17237.493    
    175000   102.25354      17237.493    
    176000   94.357762      17237.493    
    177000   99.898443      17237.493    
    178000   101.19379      17237.493    
    179000   97.598751      17237.493    
    180000   104.79007      17237.493    
    181000   101.71076      17237.493    
    182000   97.839343      17237.493    
    183000   101.35473      17237.493    
    184000   98.284317      17237.493    
    185000   109.37464      17237.493    
    186000   96.016155      17237.493    
    187000   100.44811      17237.493    
    188000   101.1395       17237.493    
    189000   105.083        17237.493    
    190000   98.74935       17237.493    
    191000   94.982361      17237.493    
    192000   97.265553      17237.493    
    193000   97.948746      17237.493    
    194000   98.922084      17237.493    
    195000   94.737763      17237.493    
    196000   110.20795      17237.493    
    197000   101.82428      17237.493    
    198000   93.142538      17237.493    
    199000   99.242076      17237.493    
    200000   98.243936      17237.493    
    200014   102.17976      17237.493    
Loop time of 31.4738 on 8 procs for 200000 steps with 424 atoms

Performance: 549.028 ns/day, 0.044 hours/ns, 6354.494 timesteps/s, 2.694 Matom-step/s
99.6% CPU use with 8 MPI tasks x no OpenMP threads

MPI task timing breakdown:
Section |  min time  |  avg time  |  max time  |%varavg| %total
---------------------------------------------------------------
Pair    | 9.6716     | 9.9073     | 10.483     |   8.3 | 31.48
Bond    | 2.6027     | 2.686      | 2.7875     |   3.9 |  8.53
Neigh   | 0.31372    | 0.31971    | 0.32356    |   0.6 |  1.02
Comm    | 16.092     | 16.73      | 17.445     |  11.6 | 53.16
Output  | 0.0015338  | 0.0017054  | 0.0025789  |   0.8 |  0.01
Modify  | 0.66199    | 1.1994     | 1.7228     |  46.0 |  3.81
Other   |            | 0.6295     |            |       |  2.00

Nlocal:             53 ave          53 max          53 min
Histogram: 8 0 0 0 0 0 0 0 0 0
Nghost:           1648 ave        1648 max        1648 min
Histogram: 8 0 0 0 0 0 0 0 0 0
Neighs:        7647.88 ave        7889 max        7400 min
Histogram: 2 0 0 1 1 0 2 0 0 2

Total # of neighbors = 61183
Ave neighs/atom = 144.29953
Ave special neighs/atom = 6.7169811
Neighbor list builds = 896
Dangerous builds = 0
unfix		1

fix             1 all npt temp ${t} ${t} ${tdamp} tri ${p} ${p} ${pdamp}
fix             1 all npt temp 100 ${t} ${tdamp} tri ${p} ${p} ${pdamp}
fix             1 all npt temp 100 100 ${tdamp} tri ${p} ${p} ${pdamp}
fix             1 all npt temp 100 100 100 tri ${p} ${p} ${pdamp}
fix             1 all npt temp 100 100 100 tri 1 ${p} ${pdamp}
fix             1 all npt temp 100 100 100 tri 1 1 ${pdamp}
fix             1 all npt temp 100 100 100 tri 1 1 1000
thermo          1000
run             ${d2}
run             200000
Generated 10 of 10 mixed pair_coeff terms from arithmetic mixing rule
WARNING: Inconsistent image flags (../domain.cpp:815)
Per MPI rank memory allocation (min/avg/max) = 12.43 | 12.43 | 12.43 Mbytes
   Step          Temp          Volume    
    200014   102.17976      17237.493    
    201000   94.628864      16571.066    
    202000   97.652306      16739.423    
    203000   101.69909      16598.394    
    204000   96.396454      16725.158    
    205000   102.31815      16629.887    
    206000   102.65544      16709.628    
    207000   98.337841      16640.659    
    208000   104.80216      16673.826    
    209000   99.986918      16561.937    
    210000   95.779527      16665.925    
    211000   95.183562      16597.577    
    212000   96.001393      16649.455    
    213000   102.84051      16629.015    
    214000   97.185357      16703.827    
    215000   109.51844      16628.046    
    216000   100.4606       16695.773    
    217000   103.15406      16566.761    
    218000   97.93477       16709.937    
    219000   96.789641      16562.262    
    220000   95.335656      16624.463    
    221000   98.836907      16610.547    
    222000   97.317765      16651.414    
    223000   98.067955      16684.93     
    224000   93.793244      16682.145    
    225000   104.74685      16659.464    
    226000   97.044229      16598.26     
    227000   96.106989      16660.761    
    228000   101.56362      16666.527    
    229000   98.448514      16661.453    
    230000   98.734133      16643.492    
    231000   104.64088      16708.759    
    232000   100.24453      16650.145    
    233000   101.15022      16725.134    
    234000   102.3459       16610.654    
    235000   96.03442       16693.039    
    236000   100.75438      16622.475    
    237000   108.835        16722.746    
    238000   93.831005      16638.082    
    239000   102.37034      16647.961    
    240000   100.68247      16644.953    
    241000   106.51762      16655.258    
    242000   98.2204        16695.248    
    243000   92.21837       16607.932    
    244000   105.2629       16660.293    
    245000   100.57265      16601.086    
    246000   100.58445      16746.457    
    247000   102.82724      16586.772    
    248000   98.649508      16686.317    
    249000   101.13486      16612.758    
    250000   101.9885       16671.379    
    251000   105.52121      16626.068    
    252000   101.34053      16641.218    
    253000   108.92206      16680.691    
    254000   103.87018      16635.506    
    255000   104.5398       16636.327    
    256000   106.6746       16666.768    
    257000   100.03495      16603.948    
    258000   102.96488      16663.495    
    259000   101.10728      16616.124    
    260000   103.34807      16638.785    
    261000   93.631729      16630.314    
    262000   97.844913      16598.682    
    263000   104.4808       16624.762    
    264000   92.64463       16650.509    
    265000   103.72952      16671.223    
    266000   105.16713      16686.346    
    267000   98.466839      16695.515    
    268000   105.76017      16670.218    
    269000   100.27704      16686.119    
    270000   105.18002      16675.041    
    271000   95.054014      16707.187    
    272000   99.287172      16656.367    
    273000   98.995045      16679.19     
    274000   99.78812       16676.079    
    275000   97.033258      16635.608    
    276000   106.02816      16732.61     
    277000   103.64375      16665.245    
    278000   97.836705      16693.093    
    279000   98.041022      16667.546    
    280000   94.141002      16676.36     
    281000   107.94945      16704.11     
    282000   96.437495      16677.853    
    283000   101.76387      16639.575    
    284000   95.994279      16689.346    
    285000   101.55949      16640.48     
    286000   103.31963      16690.586    
    287000   99.364714      16679.099    
    288000   104.88085      16713.765    
    289000   101.87868      16649.688    
    290000   109.27712      16718.244    
    291000   94.336564      16659        
    292000   101.31611      16714.049    
    293000   103.48804      16654.675    
    294000   94.590138      16676.543    
    295000   93.456514      16655.654    
    296000   102.20766      16691.38     
    297000   102.69996      16647.816    
    298000   98.213051      16684.095    
    299000   99.579505      16651.555    
    300000   106.27324      16657.743    
    301000   96.054019      16675.821    
    302000   98.179808      16690.946    
    303000   99.233884      16698.81     
    304000   102.99273      16689.191    
    305000   104.63146      16661.548    
    306000   99.349897      16664.934    
    307000   106.07682      16685.466    
    308000   100.14812      16669.288    
    309000   98.466113      16656.348    
    310000   94.939313      16697.458    
    311000   102.16277      16662.079    
    312000   100.54807      16680.424    
    313000   98.677326      16671.241    
    314000   93.444714      16690.33     
    315000   104.39491      16710.415    
    316000   107.62322      16622.486    
    317000   97.314678      16674.801    
    318000   102.08866      16644.334    
    319000   101.3146       16695.457    
    320000   96.905681      16634.486    
    321000   92.531412      16657.364    
    322000   101.27055      16635.553    
    323000   96.440289      16645.684    
    324000   93.387708      16658.493    
    325000   100.81163      16603.138    
    326000   99.491905      16721.082    
    327000   93.079939      16682.716    
    328000   101.91697      16648.31     
    329000   97.018176      16643.786    
    330000   99.709306      16646.113    
    331000   103.95486      16665.314    
    332000   96.321581      16619.891    
    333000   103.27983      16658.321    
    334000   100.09314      16624.665    
    335000   96.879859      16635.179    
    336000   98.106434      16625.669    
    337000   95.308128      16659.711    
    338000   105.21057      16678.101    
    339000   108.96395      16642.078    
    340000   100.33258      16672.553    
    341000   104.49607      16661.368    
    342000   103.65186      16706.011    
    343000   98.404202      16649.68     
    344000   103.81893      16654.705    
    345000   101.4063       16598.94     
    346000   98.137772      16692.096    
    347000   99.861254      16633.664    
    348000   99.892389      16660.887    
    349000   100.58839      16693.863    
    350000   99.657096      16695.215    
    351000   100.90712      16732.066    
    352000   105.44506      16614.07     
    353000   103.47241      16687.452    
    354000   100.21723      16594.316    
    355000   102.1829       16730.201    
    356000   98.933385      16649.574    
    357000   96.960745      16696.842    
    358000   88.984547      16669.852    
    359000   97.076051      16720.938    
    360000   100.53434      16690.119    
    361000   100.29685      16736.771    
    362000   98.978585      16662.788    
    363000   108.837        16686.747    
    364000   102.92432      16679.517    
    365000   100.54811      16660.551    
    366000   94.834866      16664.543    
    367000   98.889659      16665.176    
    368000   101.84891      16742.163    
    369000   93.361308      16638.629    
    370000   97.370633      16699.143    
    371000   93.667808      16620.987    
    372000   104.97867      16633.244    
    373000   101.989        16677.681    
    374000   101.55753      16671.331    
    375000   105.63908      16671.966    
    376000   102.65815      16688.065    
    377000   93.699828      16647.455    
    378000   97.740893      16673.269    
    379000   103.22529      16694.749    
    380000   100.74626      16671.007    
    381000   91.202097      16656.576    
    382000   104.77293      16656.263    
    383000   104.5514       16722.748    
    384000   102.01697      16651.256    
    385000   103.63844      16667.376    
    386000   95.73159       16693.082    
    387000   100.27407      16650.144    
    388000   96.485259      16706.681    
    389000   103.95003      16721.54     
    390000   99.101191      16676.921    
    391000   99.386956      16697.153    
    392000   106.80697      16654.328    
    393000   100.80609      16719.547    
    394000   104.28889      16633.7      
    395000   100.56966      16665.747    
    396000   93.345823      16706.06     
    397000   99.987449      16663.967    
    398000   99.992011      16729.267    
    399000   108.11652      16636.565    
    400000   101.18005      16715.249    
    400014   96.100872      16688.528    
Loop time of 37.2402 on 8 procs for 200000 steps with 424 atoms

Performance: 464.015 ns/day, 0.052 hours/ns, 5370.547 timesteps/s, 2.277 Matom-step/s
99.6% CPU use with 8 MPI tasks x no OpenMP threads

MPI task timing breakdown:
Section |  min time  |  avg time  |  max time  |%varavg| %total
---------------------------------------------------------------
Pair    | 11.387     | 11.617     | 12.244     |   8.1 | 31.19
Bond    | 3.3857     | 3.4888     | 3.6474     |   4.5 |  9.37
Neigh   | 0.56408    | 0.57408    | 0.58171    |   0.9 |  1.54
Comm    | 16.327     | 16.946     | 17.711     |  11.4 | 45.50
Output  | 0.0015166  | 0.0017197  | 0.0027576  |   1.0 |  0.00
Modify  | 3.4633     | 3.9502     | 4.4292     |  23.7 | 10.61
Other   |            | 0.6626     |            |       |  1.78

Nlocal:             53 ave          53 max          53 min
Histogram: 8 0 0 0 0 0 0 0 0 0
Nghost:           1648 ave        1648 max        1648 min
Histogram: 8 0 0 0 0 0 0 0 0 0
Neighs:        7948.62 ave        8177 max        7808 min
Histogram: 2 0 2 2 0 0 0 0 0 2

Total # of neighbors = 63589
Ave neighs/atom = 149.97406
Ave special neighs/atom = 6.7169811
Neighbor list builds = 1612
Dangerous builds = 0

reset_timestep  0
#############################  Production ###################################
variable        V       equal vol 		    #Volume variable
variable        a	 	equal cella 		#Lattice variable
variable        b	 	equal cellb 		#Lattice variable
variable        c	 	equal cellc 		#Lattice variable
fix 			4 all ave/time 1 ${d3} ${d3} v_V v_a v_b v_c ave running file results_${t}.txt overwrite
fix 			4 all ave/time 1 600000 ${d3} v_V v_a v_b v_c ave running file results_${t}.txt overwrite
fix 			4 all ave/time 1 600000 600000 v_V v_a v_b v_c ave running file results_${t}.txt overwrite
fix 			4 all ave/time 1 600000 600000 v_V v_a v_b v_c ave running file results_100.txt overwrite
fix 			5 all ave/time 1 10000 10000 v_V v_a v_b v_c file summary_${t}.txt
fix 			5 all ave/time 1 10000 10000 v_V v_a v_b v_c file summary_100.txt
thermo          1000
run             ${d3}
run             600000
Generated 10 of 10 mixed pair_coeff terms from arithmetic mixing rule
WARNING: Inconsistent image flags (../domain.cpp:815)
Per MPI rank memory allocation (min/avg/max) = 12.43 | 12.43 | 12.43 Mbytes
   Step          Temp          Volume    
         0   96.100872      16688.528    
      1000   106.80624      16623.609    
      2000   107.53794      16643.757    
      3000   104.33874      16712.181    
      4000   101.91652      16627.381    
      5000   92.498547      16706.403    
      6000   101.51485      16614.349    
      7000   102.07693      16732.839    
      8000   99.271598      16626.228    
      9000   91.519354      16702.7      
     10000   99.819984      16665.531    
     11000   98.683913      16660.847    
     12000   98.194265      16678.29     
     13000   102.797        16680.162    
     14000   99.41907       16688.499    
     15000   95.785861      16676.727    
     16000   100.22441      16692.639    
     17000   93.523428      16638.859    
     18000   99.001973      16723.97     
     19000   102.0739       16624.192    
     20000   96.446927      16716.571    
     21000   99.688146      16597.717    
     22000   98.363458      16684.499    
     23000   98.336061      16634.448    
     24000   99.067755      16700.847    
     25000   96.645952      16664.281    
     26000   97.118284      16724.892    
     27000   98.625521      16578.843    
     28000   100.13103      16712.925    
     29000   98.363619      16635.333    
     30000   101.91332      16709.031    
     31000   101.63768      16605.653    
     32000   106.00947      16673.257    
     33000   100.70886      16622.014    
     34000   106.80889      16704.963    
     35000   98.747712      16681.538    
     36000   103.91715      16671.369    
     37000   103.15834      16658.25     
     38000   100.56797      16682.516    
     39000   100.3698       16650.366    
     40000   116.35868      16626.173    
     41000   91.593872      16645.888    
     42000   100.7183       16683.351    
     43000   96.913999      16679.513    
     44000   107.59557      16702.261    
     45000   97.200573      16659.704    
     46000   100.27608      16690.777    
     47000   93.824101      16657.484    
     48000   102.6914       16664.49     
     49000   103.09329      16682.17     
     50000   95.867032      16669.134    
     51000   103.19978      16628.647    
     52000   93.149466      16699.25     
     53000   92.606847      16680.927    
     54000   100.32916      16683.727    
     55000   106.25912      16647.369    
     56000   88.934676      16655.835    
     57000   97.455782      16677.91     
     58000   95.420787      16650.861    
     59000   106.85419      16680.896    
     60000   103.43422      16645.384    
     61000   102.62419      16686.238    
     62000   104.12355      16606.763    
     63000   98.155259      16714.779    
     64000   101.75696      16659.076    
     65000   104.11955      16744.372    
     66000   94.75452       16586.116    
     67000   105.10891      16772.318    
     68000   97.802605      16617.111    
     69000   99.51871       16731.575    
     70000   106.23162      16616.378    
     71000   95.164814      16702.43     
     72000   106.53635      16633.089    
     73000   103.43879      16730.886    
     74000   104.79152      16604.496    
     75000   99.208667      16671.048    
     76000   100.37384      16679.613    
     77000   104.45553      16706.964    
     78000   98.459734      16638.428    
     79000   105.09855      16663.293    
     80000   98.327163      16664.947    
     81000   102.42751      16696.35     
     82000   98.815784      16610.55     
     83000   109.53995      16689.43     
     84000   97.584099      16599.169    
     85000   94.408097      16757.204    
     86000   96.864376      16629.21     
     87000   105.97487      16691.339    
     88000   100.07872      16652.488    
     89000   100.83318      16706.043    
     90000   96.163035      16656.985    
     91000   99.140723      16708.205    
     92000   99.133226      16653.509    
     93000   99.467448      16668.1      
     94000   106.69896      16712.373    
     95000   104.97581      16665.525    
     96000   102.1391       16659.475    
     97000   99.522748      16677.203    
     98000   98.04339       16653.463    
     99000   87.245441      16640.062    
    100000   95.266921      16676.014    
    101000   95.197799      16663.707    
    102000   100.07693      16697.84     
    103000   102.06454      16648.113    
    104000   100.92532      16735.39     
    105000   100.58517      16610.069    
    106000   100.01294      16710.652    
    107000   97.091118      16631.963    
    108000   99.378275      16677.262    
    109000   94.747346      16700.514    
    110000   96.584285      16609.872    
    111000   100.99247      16652.731    
    112000   98.820695      16634.435    
    113000   95.201219      16655.039    
    114000   100.49245      16659.101    
    115000   97.30273       16653.116    
    116000   100.64319      16738.55     
    117000   97.302565      16606.539    
    118000   100.56048      16674.115    
    119000   98.364375      16636.721    
    120000   103.18857      16688.603    
    121000   97.94174       16652.111    
    122000   110.61913      16648.393    
    123000   103.00724      16699.519    
    124000   103.68992      16618.341    
    125000   101.53791      16749.491    
    126000   94.255157      16646.608    
    127000   99.110274      16724.718    
    128000   95.664215      16635.553    
    129000   99.564314      16671.952    
    130000   105.09117      16614.017    
    131000   96.897093      16666.518    
    132000   98.612604      16644.264    
    133000   104.10728      16668.085    
    134000   99.257762      16675.804    
    135000   106.12597      16689.421    
    136000   103.44726      16662.709    
    137000   104.82456      16675.445    
    138000   93.818962      16654.703    
    139000   103.65855      16668.885    
    140000   102.4796       16708.128    
    141000   101.40223      16633.22     
    142000   104.31365      16653.858    
    143000   98.574748      16655.946    
    144000   104.09781      16672.694    
    145000   101.03616      16660.312    
    146000   91.560583      16655.259    
    147000   104.54819      16634.861    
    148000   103.92658      16706.276    
    149000   92.800616      16650.174    
    150000   105.08133      16643.806    
    151000   100.88577      16614.045    
    152000   96.723048      16747.281    
    153000   99.691639      16631.712    
    154000   98.209162      16812.544    
    155000   96.904754      16612.116    
    156000   98.924142      16783.783    
    157000   92.51201       16618.479    
    158000   105.37309      16706.492    
    159000   103.86281      16593.923    
    160000   91.673633      16692.135    
    161000   102.46705      16660.84     
    162000   105.29696      16650.839    
    163000   93.353707      16670.058    
    164000   101.1337       16678.93     
    165000   106.67431      16651.287    
    166000   94.438376      16654.168    
    167000   96.723124      16684.167    
    168000   105.1585       16683.324    
    169000   102.4127       16658.939    
    170000   103.75691      16617.383    
    171000   103.79939      16657.556    
    172000   101.68606      16679.554    
    173000   107.70507      16686.099    
    174000   97.808162      16649.406    
    175000   101.94156      16658.142    
    176000   95.363423      16705.716    
    177000   101.3361       16636.054    
    178000   98.839868      16692.922    
    179000   99.553113      16668.904    
    180000   96.645353      16679.896    
    181000   102.61677      16689.493    
    182000   99.239035      16674.278    
    183000   94.798278      16653.755    
    184000   98.648775      16642.162    
    185000   99.357175      16661.888    
    186000   101.79191      16632.965    
    187000   99.110619      16702.972    
    188000   102.65818      16659.841    
    189000   97.703315      16675.416    
    190000   95.199525      16630.981    
    191000   100.94152      16709.161    
    192000   102.47494      16654.646    
    193000   95.864084      16633.247    
    194000   103.16033      16644.827    
    195000   106.97526      16644.542    
    196000   101.38499      16659.677    
    197000   104.28634      16638.651    
    198000   101.73336      16700.001    
    199000   100.44716      16670.515    
    200000   100.37076      16688.904    
    201000   107.35816      16646.478    
    202000   95.591005      16682.703    
    203000   100.76474      16637.833    
    204000   100.31992      16634.348    
    205000   102.44704      16585.239    
    206000   105.64331      16668.056    
    207000   98.561164      16574.892    
    208000   98.589161      16732.276    
    209000   105.78572      16592.021    
    210000   98.733389      16697.48     
    211000   103.0169       16603.515    
    212000   100.55536      16707.869    
    213000   101.17749      16672.765    
    214000   104.41796      16606.145    
    215000   95.658153      16654.562    
    216000   101.56916      16609.775    
    217000   96.604913      16694.143    
    218000   96.761038      16572.471    
    219000   104.01321      16702.065    
    220000   100.08349      16635.441    
    221000   99.076009      16739.124    
    222000   105.92768      16629.396    
    223000   92.467916      16729.289    
    224000   95.99389       16582.233    
    225000   97.272049      16620.413    
    226000   103.2988       16535.23     
    227000   96.510801      16682.64     
    228000   95.395299      16607.805    
    229000   98.8651        16633.42     
    230000   94.808287      16648.812    
    231000   103.31485      16710.758    
    232000   104.44981      16611.473    
    233000   97.505658      16706.975    
    234000   103.23342      16605.857    
    235000   107.34715      16678.573    
    236000   97.496587      16682.749    
    237000   101.62287      16616.379    
    238000   102.95941      16696.326    
    239000   103.61273      16586.17     
    240000   99.085301      16680.948    
    241000   107.62972      16658.996    
    242000   98.22214       16667.253    
    243000   97.243398      16689.591    
    244000   99.222475      16658.133    
    245000   99.101687      16653.927    
    246000   96.669993      16706.89     
    247000   102.70733      16612.004    
    248000   91.355317      16685.328    
    249000   101.69336      16572.75     
    250000   99.911916      16663.521    
    251000   99.49218       16603.201    
    252000   98.407816      16689.161    
    253000   95.604849      16640.417    
    254000   101.28086      16622.792    
    255000   97.411601      16582.659    
    256000   100.59275      16604.092    
    257000   93.830726      16646.017    
    258000   99.131312      16635.032    
    259000   99.909468      16668.809    
    260000   94.854073      16633.683    
    261000   96.914671      16695.856    
    262000   96.613269      16626.726    
    263000   99.327297      16695.816    
    264000   97.146791      16641.555    
    265000   103.08637      16693.141    
    266000   103.27919      16647.171    
    267000   101.73294      16665.978    
    268000   100.02638      16577.631    
    269000   92.325564      16694.771    
    270000   101.72008      16570.33     
    271000   104.82106      16676.436    
    272000   104.41165      16629.259    
    273000   98.682208      16651.662    
    274000   108.24942      16604.804    
    275000   96.525693      16698.528    
    276000   98.866519      16589.095    
    277000   98.647558      16696.527    
    278000   97.981905      16600.865    
    279000   102.34989      16647.917    
    280000   96.617669      16653.301    
    281000   100.20644      16621.581    
    282000   95.571422      16609.596    
    283000   100.72581      16622.509    
    284000   95.935107      16638.633    
    285000   101.6595       16685.536    
    286000   99.281019      16683.327    
    287000   95.930227      16664.028    
    288000   100.35761      16611.395    
    289000   99.301017      16686.152    
    290000   93.34435       16675.34     
    291000   92.903476      16612.522    
    292000   100.20405      16690.758    
    293000   102.38019      16650.489    
    294000   100.08251      16644.176    
    295000   105.61181      16666.699    
    296000   98.787182      16606.808    
    297000   95.710747      16635.807    
    298000   105.31887      16601.21     
    299000   94.844715      16708.959    
    300000   98.620227      16612.969    
    301000   103.66995      16668.527    
    302000   103.94075      16636.792    
    303000   99.772919      16661.966    
    304000   101.93216      16588.843    
    305000   100.55842      16700.613    
    306000   103.2795       16614.257    
    307000   107.37486      16700.908    
    308000   94.776348      16650.467    
    309000   98.176932      16674.912    
    310000   98.689634      16633.21     
    311000   103.74656      16674.47     
    312000   102.07771      16633.212    
    313000   98.629059      16607.565    
    314000   104.71719      16697.443    
    315000   102.1552       16582.029    
    316000   101.39068      16656.163    
    317000   91.793565      16627.297    
    318000   97.586567      16609.012    
    319000   93.568254      16638.342    
    320000   103.53149      16668.78     
    321000   96.843196      16677.493    
    322000   99.304904      16616.197    
    323000   95.850812      16682.293    
    324000   96.348788      16561.215    
    325000   96.572109      16702.693    
    326000   98.126026      16639.518    
    327000   100.76601      16625.728    
    328000   93.964426      16613.517    
    329000   99.771193      16724.806    
    330000   103.05361      16606.713    
    331000   100.32093      16746.684    
    332000   101.61206      16618.523    
    333000   102.59507      16707.824    
    334000   101.46413      16607.285    
    335000   93.879871      16652.039    
    336000   96.747571      16688.011    
    337000   96.744448      16656.817    
    338000   102.24808      16659.75     
    339000   87.502704      16633.683    
    340000   87.56059       16647.2      
    341000   101.01972      16676.107    
    342000   91.937569      16650.627    
    343000   94.740677      16674.191    
    344000   98.208728      16706.697    
    345000   105.84171      16610.571    
    346000   100.13613      16746.384    
    347000   101.58303      16598.613    
    348000   97.744507      16731.476    
    349000   101.4494       16600.616    
    350000   101.14222      16699.681    
    351000   102.75613      16629.581    
    352000   99.764593      16691.105    
    353000   97.363024      16591.867    
    354000   101.40517      16728.323    
    355000   95.216636      16608.602    
    356000   103.76772      16700.511    
    357000   99.911066      16587.052    
    358000   107.36501      16685.492    
    359000   100.40018      16614.817    
    360000   103.72304      16707.119    
    361000   100.12751      16633.737    
    362000   105.05592      16694.923    
    363000   105.55754      16667.768    
    364000   106.57536      16689.155    
    365000   94.417179      16707.665    
    366000   96.889403      16687.426    
    367000   96.181082      16651.727    
    368000   108.41368      16706.061    
    369000   98.693812      16585.068    
    370000   98.274644      16724.137    
    371000   98.338434      16610.906    
    372000   101.83043      16703.925    
    373000   100.94545      16698.73     
    374000   97.039439      16661.615    
    375000   109.69958      16717.965    
    376000   94.465391      16636.82     
    377000   106.27789      16716.314    
    378000   104.80921      16696.425    
    379000   96.987567      16644.041    
    380000   102.21         16731.471    
    381000   97.653328      16630.091    
    382000   103.10658      16648.571    
    383000   101.58115      16706.853    
    384000   100.60061      16646.868    
    385000   104.88813      16625.992    
    386000   94.344119      16654.366    
    387000   101.61687      16633.724    
    388000   98.412794      16684.794    
    389000   98.175933      16646.183    
    390000   105.99196      16686.75     
    391000   100.71655      16636.712    
    392000   106.70639      16704.548    
    393000   108.86718      16641.307    
    394000   103.25204      16694.449    
    395000   101.89349      16646.01     
    396000   96.63515       16696.981    
    397000   98.005198      16647.451    
    398000   106.75571      16657.809    
    399000   100.54688      16643.739    
    400000   99.551111      16669.018    
    401000   96.036836      16668.318    
    402000   104.4254       16629.93     
    403000   102.06786      16675.693    
    404000   95.406269      16666.617    
    405000   99.689175      16670.814    
    406000   106.94543      16711.72     
    407000   94.075758      16669.072    
    408000   101.77706      16664.707    
    409000   96.339059      16659.57     
    410000   104.93684      16661.876    
    411000   102.82261      16626.565    
    412000   102.27683      16652.708    
    413000   105.3759       16654.506    
    414000   97.129212      16636.144    
    415000   97.341901      16699.684    
    416000   104.33749      16633.129    
    417000   95.84697       16689.814    
    418000   100.68539      16559.595    
    419000   112.0862       16706.557    
    420000   102.59274      16622.769    
    421000   102.01306      16644.434    
    422000   102.99398      16638.689    
    423000   104.80514      16673.799    
    424000   98.061618      16651.458    
    425000   97.673032      16665.416    
    426000   103.6322       16639.209    
    427000   102.79063      16645.019    
    428000   102.98069      16608.764    
    429000   103.23649      16656.398    
    430000   104.19603      16605.283    
    431000   97.2077        16647.706    
    432000   96.335408      16666.219    
    433000   99.192285      16628.174    
    434000   104.65878      16650.54     
    435000   95.623399      16632.258    
    436000   103.35207      16676.379    
    437000   107.24211      16570.718    
    438000   100.19567      16646.055    
    439000   100.57499      16589.902    
    440000   103.54931      16688.546    
    441000   98.771464      16660.204    
    442000   101.84692      16660.284    
    443000   94.652692      16660.323    
    444000   100.08126      16634.278    
    445000   94.107323      16667.821    
    446000   99.706777      16637.368    
    447000   99.374366      16635.01     
    448000   99.286267      16646.555    
    449000   105.83465      16659.597    
    450000   96.66804       16662.51     
    451000   95.746139      16703.652    
    452000   102.46775      16610.255    
    453000   103.15726      16702.851    
    454000   101.73652      16633.238    
    455000   99.102915      16692.764    
    456000   101.5533       16614.146    
    457000   98.409166      16728.331    
    458000   102.2154       16630.466    
    459000   95.657156      16719.808    
    460000   101.38374      16628.019    
    461000   103.22632      16720.608    
    462000   101.88939      16652.184    
    463000   99.701347      16693.363    
    464000   94.75558       16663.012    
    465000   100.78087      16676.441    
    466000   98.345618      16622.177    
    467000   97.09958       16702.997    
    468000   98.399304      16646.836    
    469000   102.91379      16703.918    
    470000   99.396583      16630.708    
    471000   102.21841      16632.136    
    472000   94.418984      16639.836    
    473000   98.183041      16673.105    
    474000   100.60353      16643.248    
    475000   105.47909      16661.996    
    476000   98.003284      16632.401    
    477000   97.74278       16675.927    
    478000   99.307498      16641.147    
    479000   98.489478      16693.845    
    480000   103.68582      16657.419    
    481000   100.25418      16661.58     
    482000   97.810023      16646.708    
    483000   98.924039      16701.068    
    484000   98.213872      16692.747    
    485000   101.63856      16654.621    
    486000   108.49431      16653.588    
    487000   97.291698      16680.726    
    488000   106.1888       16638.793    
    489000   105.42961      16636.695    
    490000   96.804684      16657.598    
    491000   100.29146      16651.962    
    492000   103.83288      16700.839    
    493000   104.12723      16594.732    
    494000   94.256358      16692.419    
    495000   102.38983      16684.106    
    496000   96.9498        16678.656    
    497000   101.36962      16650.824    
    498000   106.55368      16613.967    
    499000   99.245388      16669.028    
    500000   106.58408      16638.693    
    501000   102.49301      16674.932    
    502000   94.446715      16639.477    
    503000   97.851031      16710.727    
    504000   101.46725      16568.988    
    505000   104.56048      16688.795    
    506000   101.14921      16667.276    
    507000   93.361476      16638.134    
    508000   100.47946      16689.178    
    509000   97.96904       16626.436    
    510000   99.933494      16652.923    
    511000   105.10041      16697.328    
    512000   98.344182      16696.303    
    513000   95.552751      16626.083    
    514000   96.905299      16681.404    
    515000   106.20842      16640.908    
    516000   97.507438      16752.314    
    517000   100.31051      16634.481    
    518000   103.58297      16669.997    
    519000   103.2334       16624.841    
    520000   106.63367      16709.829    
    521000   101.68123      16643.907    
    522000   103.57201      16730.41     
    523000   102.78633      16681.424    
    524000   99.759992      16717.023    
    525000   98.758886      16645.766    
    526000   100.56797      16675.277    
    527000   101.29171      16625.852    
    528000   92.657448      16712.836    
    529000   103.64322      16580.36     
    530000   94.042395      16671.95     
    531000   100.50145      16613.658    
    532000   102.76764      16695.121    
    533000   102.95492      16598.934    
    534000   101.71503      16665.939    
    535000   101.2646       16528.88     
    536000   97.880471      16680.627    
    537000   96.141494      16642.602    
    538000   103.01217      16699.233    
    539000   107.81384      16616.029    
    540000   111.58936      16675.963    
    541000   103.52439      16529.741    
    542000   100.49874      16711.154    
    543000   101.76896      16629.271    
    544000   101.85087      16666.271    
    545000   97.089466      16645.094    
    546000   96.878649      16666.974    
    547000   98.155471      16631.647    
    548000   100.8876       16740.001    
    549000   89.463852      16647.211    
    550000   95.740257      16689.595    
    551000   90.265477      16686.986    
    552000   92.757383      16658.367    
    553000   96.760013      16672.114    
    554000   104.69337      16665.814    
    555000   92.725703      16693.689    
    556000   99.300182      16663.409    
    557000   103.0395       16692.239    
    558000   95.848495      16663.057    
    559000   93.892188      16688.786    
    560000   103.66001      16680.992    
    561000   99.35028       16665.273    
    562000   100.20179      16680.459    
    563000   98.997767      16666.231    
    564000   100.51169      16656.476    
    565000   106.11562      16669.868    
    566000   105.34998      16690.223    
    567000   104.89952      16630.942    
    568000   101.37839      16750.211    
    569000   97.850996      16657.878    
    570000   101.36583      16654.865    
    571000   98.725851      16712.077    
    572000   97.781863      16635.087    
    573000   98.162585      16671.964    
    574000   97.591598      16715.186    
    575000   100.53339      16677.134    
    576000   99.27504       16729.578    
    577000   101.72225      16632.802    
    578000   108.01317      16758.56     
    579000   101.79152      16651.672    
    580000   96.356302      16713.148    
    581000   110.60682      16620.854    
    582000   98.502757      16708.449    
    583000   104.51047      16700.946    
    584000   100.35668      16716.257    
    585000   103.46493      16611.347    
    586000   91.910363      16709.464    
    587000   98.962845      16636.255    
    588000   98.940076      16708.179    
    589000   96.279117      16670.031    
    590000   101.14067      16738.448    
    591000   108.99652      16593.218    
    592000   96.660174      16710.786    
    593000   104.49323      16633.483    
    594000   99.660821      16709.763    
    595000   102.62211      16646.658    
    596000   102.37744      16687.743    
    597000   109.66427      16608.044    
    598000   95.967842      16693.842    
    599000   95.18985       16686.994    
    600000   106.44378      16642.357    
Loop time of 115.789 on 8 procs for 600000 steps with 424 atoms

Performance: 447.711 ns/day, 0.054 hours/ns, 5181.844 timesteps/s, 2.197 Matom-step/s
99.6% CPU use with 8 MPI tasks x no OpenMP threads

MPI task timing breakdown:
Section |  min time  |  avg time  |  max time  |%varavg| %total
---------------------------------------------------------------
Pair    | 34.295     | 34.97      | 36.935     |  14.4 | 30.20
Bond    | 10.197     | 10.503     | 10.971     |   7.7 |  9.07
Neigh   | 1.7414     | 1.7503     | 1.7691     |   0.8 |  1.51
Comm    | 49.419     | 51.027     | 53.063     |  17.4 | 44.07
Output  | 0.0059165  | 0.0067205  | 0.010904   |   1.9 |  0.01
Modify  | 14.267     | 15.56      | 16.822     |  31.4 | 13.44
Other   |            | 1.972      |            |       |  1.70

Nlocal:             53 ave          53 max          53 min
Histogram: 8 0 0 0 0 0 0 0 0 0
Nghost:           1648 ave        1648 max        1648 min
Histogram: 8 0 0 0 0 0 0 0 0 0
Neighs:        7925.38 ave        8208 max        7730 min
Histogram: 1 3 0 0 1 1 0 0 1 1

Total # of neighbors = 63403
Ave neighs/atom = 149.53538
Ave special neighs/atom = 6.7169811
Neighbor list builds = 4921
Dangerous builds = 0

unfix           1

print "All done!"
All done!
clear
next t
jump in.IRMOF-1
#========================= List of variables =========================#
variable        t  index 100 200 300 400 500			# Temperature in Kelvin
variable        p  index 1			# Pressure in atm
variable        dt         equal 1.00
variable        pdamp      equal 1000*${dt}
variable        pdamp      equal 1000*1
variable        tdamp      equal 100*${dt}
variable        tdamp      equal 100*1
variable        s  index 1					# Time step
variable        k  index 10000				# snapshots interval
variable        d1 index 200000			# NVT time (200 ns)
variable        d2 index 200000			# NPT Equilibration time (400 ps)
variable        d3 index 600000			# NPT Production time (1 ns)

#========================== Force Field  =============================#



log             log.IRMOF-1 append
units           real
atom_style      full
boundary        p p p

pair_style      lj/cut 12.500
bond_style      harmonic
angle_style     hybrid cosine/periodic fourier
dihedral_style  harmonic
improper_style  fourier

pair_modify     tail yes mix arithmetic
dielectric      1.0
special_bonds   lj/coul 0.0 0.0 1.0
box tilt        large

The 'box' command has been removed and will be ignored

read_data       data.IRMOF-1
Reading data file ...
  triclinic box = (0 0 0) to (25.832 25.832 25.832) with tilt (0 0 0)
  2 by 2 by 2 MPI processor grid
  reading atoms ...
  424 atoms
  scanning bonds ...
  4 = max bonds/atom
  scanning angles ...
  6 = max angles/atom
  scanning dihedrals ...
  8 = max dihedrals/atom
  scanning impropers ...
  3 = max impropers/atom
  reading bonds ...
  512 bonds
  reading angles ...
  912 angles
  reading dihedrals ...
  960 dihedrals
  reading impropers ...
  576 impropers
Finding 1-2 1-3 1-4 neighbors ...
  special bond factors lj:    0        0        1       
  special bond factors coul:  0        0        1       
     4 = max # of 1-2 neighbors
    12 = max # of 1-3 neighbors
    16 = max # of special neighbors
  special bonds CPU = 0.000 seconds
  read_data CPU = 0.010 seconds

#### Atom Groupings ####
group           fram     id   1:424
424 atoms in group fram
#### END Atom Groupings ####


#############################  Equilibration  ###################################
thermo_style 	custom step temp vol
minimize        0.0 1.0e-3 1000 1000
Generated 10 of 10 mixed pair_coeff terms from arithmetic mixing rule
Neighbor list info ...
  update: every = 1 steps, delay = 0 steps, check = yes
  max neighbors/atom: 2000, page size: 100000
  master list distance cutoff = 14.5
  ghost atom cutoff = 14.5
  binsize = 7.25, bins = 4 4 4
  1 neighbor lists, perpetual/occasional/extra = 1 0 0
  (1) pair lj/cut, perpetual
      attributes: half, newton on
      pair build: half/bin/newton/tri
      stencil: half/bin/3d/tri
      bin: standard
WARNING: Inconsistent image flags (../domain.cpp:815)
Per MPI rank memory allocation (min/avg/max) = 13.54 | 13.54 | 13.54 Mbytes
   Step          Temp          Volume    
         0   0              17237.493    
        14   0              17237.493    
Loop time of 0.00585985 on 8 procs for 14 steps with 424 atoms

99.6% CPU use with 8 MPI tasks x no OpenMP threads

Minimization stats:
  Stopping criterion = force tolerance
  Energy initial, next-to-last, final = 
      696.897137151284   696.893213134488   696.893213132657
  Force two-norm initial, final = 4.6169032 0.00083719479
  Force max component initial, final = 0.35089559 5.0072537e-05
  Final line search alpha, max atom move = 1 5.0072537e-05
  Iterations, force evaluations = 14 28

MPI task timing breakdown:
Section |  min time  |  avg time  |  max time  |%varavg| %total
---------------------------------------------------------------
Pair    | 0.0024468  | 0.0024889  | 0.0025251  |   0.0 | 42.47
Bond    | 0.00045948 | 0.00047557 | 0.00048864 |   0.0 |  8.12
Neigh   | 0          | 0          | 0          |   0.0 |  0.00
Comm    | 0.0023723  | 0.0024523  | 0.0025418  |   0.1 | 41.85
Output  | 0          | 0          | 0          |   0.0 |  0.00
Modify  | 0          | 0          | 0          |   0.0 |  0.00
Other   |            | 0.0004431  |            |       |  7.56

Nlocal:             53 ave          53 max          53 min
Histogram: 8 0 0 0 0 0 0 0 0 0
Nghost:           1648 ave        1648 max        1648 min
Histogram: 8 0 0 0 0 0 0 0 0 0
Neighs:           7599 ave        7599 max        7599 min
Histogram: 8 0 0 0 0 0 0 0 0 0

Total # of neighbors = 60792
Ave neighs/atom = 143.37736
Ave special neighs/atom = 6.7169811
Neighbor list builds = 0
Dangerous builds = 0
velocity        all create ${t} 331989 rot yes dist gaussian
velocity        all create 200 331989 rot yes dist gaussian

fix             1 all nvt temp ${t} ${t} ${tdamp}
fix             1 all nvt temp 200 ${t} ${tdamp}
fix             1 all nvt temp 200 200 ${tdamp}
fix             1 all nvt temp 200 200 100
thermo          1000
run             ${d1}
run             200000
Generated 10 of 10 mixed pair_coeff terms from arithmetic mixing rule
WARNING: Inconsistent image flags (../domain.cpp:815)
Per MPI rank memory allocation (min/avg/max) = 12.42 | 12.42 | 12.42 Mbytes
   Step          Temp          Volume    
        14   200            17237.493    
      1000   185.91994      17237.493    
      2000   204.59063      17237.493    
      3000   199.18822      17237.493    
      4000   210.21944      17237.493    
      5000   211.63203      17237.493    
      6000   194.21661      17237.493    
      7000   192.78367      17237.493    
      8000   183.83743      17237.493    
      9000   196.36719      17237.493    
     10000   200.00273      17237.493    
     11000   203.03284      17237.493    
     12000   195.90586      17237.493    
     13000   192.12997      17237.493    
     14000   209.70678      17237.493    
     15000   201.38584      17237.493    
     16000   201.01026      17237.493    
     17000   201.78638      17237.493    
     18000   206.58502      17237.493    
     19000   194.39091      17237.493    
     20000   200.09639      17237.493    
     21000   196.26279      17237.493    
     22000   210.94197      17237.493    
     23000   212.00328      17237.493    
     24000   195.77664      17237.493    
     25000   204.2651       17237.493    
     26000   209.93215      17237.493    
     27000   198.47946      17237.493    
     28000   211.73687      17237.493    
     29000   214.78272      17237.493    
     30000   205.74474      17237.493    
     31000   188.67409      17237.493    
     32000   202.28972      17237.493    
     33000   202.9009       17237.493    
     34000   200.19305      17237.493    
     35000   179.25111      17237.493    
     36000   194.54094      17237.493    
     37000   191.76625      17237.493    
     38000   222.27378      17237.493    
     39000   198.87895      17237.493    
     40000   208.47844      17237.493    
     41000   212.79735      17237.493    
     42000   197.46703      17237.493    
     43000   202.19345      17237.493    
     44000   196.22806      17237.493    
     45000   208.81779      17237.493    
     46000   192.92647      17237.493    
     47000   199.36011      17237.493    
     48000   192.84032      17237.493    
     49000   200.64949      17237.493    
     50000   205.64106      17237.493    
     51000   203.84556      17237.493    
     52000   203.78364      17237.493    
     53000   193.42712      17237.493    
     54000   188.48282      17237.493    
     55000   207.32271      17237.493    
     56000   197.34447      17237.493    
     57000   204.77665      17237.493    
     58000   205.3309       17237.493    
     59000   187.25562      17237.493    
     60000   198.03609      17237.493    
     61000   198.41825      17237.493    
     62000   213.94864      17237.493    
     63000   196.75291      17237.493    
     64000   213.12048      17237.493    
     65000   208.13055      17237.493    
     66000   183.47949      17237.493    
     67000   215.17453      17237.493    
     68000   201.31341      17237.493    
     69000   192.04224      17237.493    
     70000   196.68434      17237.493    
     71000   200.97785      17237.493    
     72000   217.18373      17237.493    
     73000   199.06227      17237.493    
     74000   205.60398      17237.493    
     75000   189.92069      17237.493    
     76000   215.74399      17237.493    
     77000   203.67546      17237.493    
     78000   199.84956      17237.493    
     79000   199.49411      17237.493    
     80000   195.90517      17237.493    
     81000   204.05637      17237.493    
     82000   204.51243      17237.493    
     83000   191.29716      17237.493    
     84000   198.07716      17237.493    
     85000   205.90437      17237.493    
     86000   211.96733      17237.493    
     87000   204.84887      17237.493    
     88000   214.81568      17237.493    
     89000   182.82256      17237.493    
     90000   193.29823      17237.493    
     91000   203.01463      17237.493    
     92000   190.95471      17237.493    
     93000   214.04808      17237.493    
     94000   196.13455      17237.493    
     95000   204.94649      17237.493    
     96000   193.5583       17237.493    
     97000   186.44215      17237.493    
     98000   195.36         17237.493    
     99000   204.43162      17237.493    
    100000   202.15387      17237.493    
    101000   207.56181      17237.493    
    102000   202.11119      17237.493    
    103000   196.32853      17237.493    
    104000   187.2063       17237.493    
    105000   197.8425       17237.493    
    106000   197.17596      17237.493    
    107000   219.18751      17237.493    
    108000   195.65318      17237.493    
    109000   195.15241      17237.493    
    110000   192.68216      17237.493    
    111000   202.82634      17237.493    
    112000   196.39714      17237.493    
    113000   205.31588      17237.493    
    114000   201.04351      17237.493    
    115000   206.81655      17237.493    
    116000   204.88306      17237.493    
    117000   182.05477      17237.493    
    118000   200.94242      17237.493    
    119000   188.29516      17237.493    
    120000   214.65019      17237.493    
    121000   194.29903      17237.493    
    122000   192.86969      17237.493    
    123000   185.68689      17237.493    
    124000   204.75617      17237.493    
    125000   209.62161      17237.493    
    126000   193.31002      17237.493    
    127000   195.81444      17237.493    
    128000   197.00889      17237.493    
    129000   207.93697      17237.493    
    130000   203.27145      17237.493    
    131000   199.39621      17237.493    
    132000   196.70355      17237.493    
    133000   192.04381      17237.493    
    134000   195.06115      17237.493    
    135000   210.11833      17237.493    
    136000   202.90158      17237.493    
    137000   212.98621      17237.493    
    138000   200.97822      17237.493    
    139000   196.20589      17237.493    
    140000   190.22594      17237.493    
    141000   205.67416      17237.493    
    142000   202.00369      17237.493    
    143000   197.90264      17237.493    
    144000   193.51782      17237.493    
    145000   197.11595      17237.493    
    146000   195.44198      17237.493    
    147000   207.01239      17237.493    
    148000   206.96618      17237.493    
    149000   206.18768      17237.493    
    150000   202.44985      17237.493    
    151000   202.17487      17237.493    
    152000   217.99144      17237.493    
    153000   198.42991      17237.493    
    154000   209.52222      17237.493    
    155000   202.39545      17237.493    
    156000   196.0824       17237.493    
    157000   216.49336      17237.493    
    158000   195.56886      17237.493    
    159000   192.74343      17237.493    
    160000   202.95656      17237.493    
    161000   198.77055      17237.493    
    162000   197.82211      17237.493    
    163000   186.03412      17237.493    
    164000   189.28976      17237.493    
    165000   201.51439      17237.493    
    166000   192.61921      17237.493    
    167000   208.4928       17237.493    
    168000   194.62019      17237.493    
    169000   203.5243       17237.493    
    170000   202.12368      17237.493    
    171000   207.31679      17237.493    
    172000   191.86705      17237.493    
    173000   195.09266      17237.493    
    174000   194.12601      17237.493    
    175000   202.71762      17237.493    
    176000   198.95985      17237.493    
    177000   195.79824      17237.493    
    178000   206.72215      17237.493    
    179000   205.88113      17237.493    
    180000   202.91451      17237.493    
    181000   193.69705      17237.493    
    182000   207.78658      17237.493    
    183000   204.83455      17237.493    
    184000   203.25424      17237.493    
    185000   190.36046      17237.493    
    186000   213.01239      17237.493    
    187000   200.67648      17237.493    
    188000   194.31293      17237.493    
    189000   210.24024      17237.493    
    190000   197.9458       17237.493    
    191000   193.71807      17237.493    
    192000   199.55334      17237.493    
    193000   204.94511      17237.493    
    194000   207.57201      17237.493    
    195000   204.54924      17237.493    
    196000   192.80877      17237.493    
    197000   214.81775      17237.493    
    198000   195.15356      17237.493    
    199000   195.77968      17237.493    
    200000   202.28129      17237.493    
    200014   192.83144      17237.493    
Loop time of 31.5218 on 8 procs for 200000 steps with 424 atoms

Performance: 548.192 ns/day, 0.044 hours/ns, 6344.816 timesteps/s, 2.690 Matom-step/s
99.7% CPU use with 8 MPI tasks x no OpenMP threads

MPI task timing breakdown:
Section |  min time  |  avg time  |  max time  |%varavg| %total
---------------------------------------------------------------
Pair    | 9.7776     | 9.8833     | 9.9611     |   2.1 | 31.35
Bond    | 2.5898     | 2.6737     | 2.7324     |   2.9 |  8.48
Neigh   | 0.63383    | 0.64201    | 0.65087    |   0.8 |  2.04
Comm    | 16.106     | 16.601     | 17.128     |  10.2 | 52.67
Output  | 0.001474   | 0.0017694  | 0.0036501  |   1.7 |  0.01
Modify  | 0.6172     | 1.0846     | 1.5438     |  42.2 |  3.44
Other   |            | 0.635      |            |       |  2.01

Nlocal:             53 ave          53 max          53 min
Histogram: 8 0 0 0 0 0 0 0 0 0
Nghost:        1646.88 ave        1648 max        1644 min
Histogram: 1 0 0 0 0 2 0 1 0 4
Neighs:        7639.25 ave        7824 max        7462 min
Histogram: 1 0 0 3 2 0 0 0 0 2

Total # of neighbors = 61114
Ave neighs/atom = 144.13679
Ave special neighs/atom = 6.7169811
Neighbor list builds = 1787
Dangerous builds = 0
unfix		1

fix             1 all npt temp ${t} ${t} ${tdamp} tri ${p} ${p} ${pdamp}
fix             1 all npt temp 200 ${t} ${tdamp} tri ${p} ${p} ${pdamp}
fix             1 all npt temp 200 200 ${tdamp} tri ${p} ${p} ${pdamp}
fix             1 all npt temp 200 200 100 tri ${p} ${p} ${pdamp}
fix             1 all npt temp 200 200 100 tri 1 ${p} ${pdamp}
fix             1 all npt temp 200 200 100 tri 1 1 ${pdamp}
fix             1 all npt temp 200 200 100 tri 1 1 1000
thermo          1000
run             ${d2}
run             200000
Generated 10 of 10 mixed pair_coeff terms from arithmetic mixing rule
WARNING: Inconsistent image flags (../domain.cpp:815)
Per MPI rank memory allocation (min/avg/max) = 12.43 | 12.43 | 12.43 Mbytes
   Step          Temp          Volume    
    200014   192.83144      17237.493    
    201000   195.1188       16455.242    
    202000   205.87909      16531.827    
    203000   207.67755      16668.123    
    204000   189.01638      16589.797    
    205000   201.34335      16648.052    
    206000   207.35146      16540.028    
    207000   221.07504      16614.066    
    208000   210.01701      16537.239    
    209000   196.68567      16525.385    
    210000   204.75311      16611.089    
    211000   205.744        16538.449    
    212000   194.35938      16680.864    
    213000   225.62583      16534.267    
    214000   209.83837      16659.339    
    215000   202.38604      16596.928    
    216000   197.87597      16591.222    
    217000   204.12659      16577.262    
    218000   196.57377      16649.916    
    219000   197.92552      16629.768    
    220000   199.68593      16585.202    
    221000   194.97464      16604.661    
    222000   200.28931      16635.687    
    223000   211.55118      16527.777    
    224000   191.16955      16639.04     
    225000   199.75614      16545.617    
    226000   209.9137       16689.899    
    227000   213.14708      16538.188    
    228000   202.69472      16694.6      
    229000   192.34722      16621.137    
    230000   198.41756      16556.19     
    231000   213.14067      16611.433    
    232000   199.76476      16623.708    
    233000   202.38109      16578.943    
    234000   203.14466      16607.651    
    235000   204.17461      16600.47     
    236000   204.93372      16645.23     
    237000   207.09681      16556.418    
    238000   214.38053      16630.509    
    239000   201.08779      16506.431    
    240000   191.27157      16604.968    
    241000   190.66151      16546.984    
    242000   200.16714      16517.847    
    243000   180.21679      16529.646    
    244000   191.70077      16521.908    
    245000   200.48508      16414.489    
    246000   208.00571      16554.707    
    247000   198.55743      16562.424    
    248000   192.62703      16572.53     
    249000   212.06918      16569.145    
    250000   201.8565       16542.768    
    251000   193.32863      16705.906    
    252000   218.82347      16550.667    
    253000   196.44812      16725.101    
    254000   199.75876      16616.411    
    255000   196.52178      16650.811    
    256000   191.77911      16691.077    
    257000   204.64709      16572.731    
    258000   208.71642      16711.865    
    259000   191.66097      16660.125    
    260000   210.69527      16568.932    
    261000   210.61958      16644.029    
    262000   191.22157      16614.582    
    263000   191.12515      16683.573    
    264000   199.5334       16530.454    
    265000   192.74269      16618.036    
    266000   197.69003      16523.079    
    267000   194.07398      16747.648    
    268000   201.01252      16563.155    
    269000   203.65854      16667.062    
    270000   196.10183      16589.855    
    271000   202.04886      16595.188    
    272000   182.87817      16750.378    
    273000   208.51889      16556.915    
    274000   199.9563       16639.682    
    275000   186.52897      16562.419    
    276000   208.84131      16569.254    
    277000   206.41856      16657.234    
    278000   193.43605      16666.199    
    279000   195.68813      16604.708    
    280000   208.78647      16573.872    
    281000   204.10329      16556.993    
    282000   192.46549      16567.591    
    283000   201.89008      16622.963    
    284000   197.82149      16628.338    
    285000   195.52315      16597.298    
    286000   195.2867       16674.884    
    287000   202.76455      16590.374    
    288000   202.28315      16602.088    
    289000   206.80539      16623.583    
    290000   193.67631      16652.075    
    291000   202.83978      16638.63     
    292000   195.09864      16622.578    
    293000   193.13807      16553.405    
    294000   197.18575      16616.978    
    295000   187.48056      16638.579    
    296000   201.31952      16588.545    
    297000   202.26708      16590.649    
    298000   195.55172      16665.185    
    299000   187.73858      16555.267    
    300000   206.25652      16705.769    
    301000   204.28274      16637.075    
    302000   191.95598      16614.414    
    303000   203.53008      16634.218    
    304000   195.07135      16560.797    
    305000   191.26704      16534.164    
    306000   212.15331      16594.674    
    307000   188.41451      16563.998    
    308000   203.99331      16628.328    
    309000   195.90953      16534.645    
    310000   213.47135      16593.393    
    311000   204.6966       16594.773    
    312000   188.96818      16643.428    
    313000   206.24758      16561.25     
    314000   187.65132      16545.879    
    315000   204.77319      16615.893    
    316000   201.91816      16570.602    
    317000   194.33755      16521.935    
    318000   189.84695      16542.591    
    319000   198.61692      16585.567    
    320000   201.63428      16573.334    
    321000   197.58955      16648.68     
    322000   201.04262      16547.308    
    323000   192.38079      16597.597    
    324000   203.61735      16569.183    
    325000   222.08464      16677.827    
    326000   191.20137      16570.234    
    327000   202.35301      16654.365    
    328000   193.88674      16621.917    
    329000   213.43802      16554.043    
    330000   197.38557      16631.13     
    331000   209.18081      16581.862    
    332000   200.10372      16678.661    
    333000   190.34846      16601.156    
    334000   200.95585      16505.908    
    335000   194.98272      16763.069    
    336000   217.1576       16549.296    
    337000   187.37858      16616.232    
    338000   201.21638      16518        
    339000   200.74606      16603.232    
    340000   201.59162      16566.696    
    341000   191.24113      16553.545    
    342000   210.63254      16558.163    
    343000   201.95787      16653.54     
    344000   205.49906      16555.309    
    345000   199.81935      16486.191    
    346000   184.64567      16665.201    
    347000   202.75241      16463.392    
    348000   200.17012      16646.655    
    349000   195.94516      16529.02     
    350000   188.1554       16541.55     
    351000   218.94109      16631.205    
    352000   208.77717      16511.542    
    353000   187.6292       16639.992    
    354000   195.03615      16528.695    
    355000   186.77994      16560.5      
    356000   201.14478      16582.435    
    357000   190.45767      16640.649    
    358000   205.83997      16509.058    
    359000   203.16087      16664.784    
    360000   205.7185       16510.417    
    361000   198.83539      16621.344    
    362000   209.4375       16468.074    
    363000   189.05098      16519.398    
    364000   193.72735      16579.499    
    365000   196.09414      16630.331    
    366000   208.81417      16510.038    
    367000   194.75748      16672.13     
    368000   212.81187      16587.995    
    369000   189.11029      16629.812    
    370000   189.27735      16604.916    
    371000   203.89033      16593.339    
    372000   213.2478       16619.719    
    373000   180.18958      16618.065    
    374000   187.32194      16550.911    
    375000   198.72427      16692.553    
    376000   189.45139      16629.336    
    377000   200.33498      16609.603    
    378000   204.0479       16638.814    
    379000   206.23404      16468.967    
    380000   216.6213       16675.342    
    381000   195.05565      16603.393    
    382000   205.42859      16619.422    
    383000   183.31503      16537.273    
    384000   203.46214      16696.851    
    385000   191.81339      16590.506    
    386000   189.42644      16513.577    
    387000   195.60695      16581.379    
    388000   190.403        16448.58     
    389000   204.36054      16557.437    
    390000   191.82583      16629.91     
    391000   187.00123      16612.601    
    392000   206.0038       16668.593    
    393000   205.24673      16539.707    
    394000   196.8366       16655.93     
    395000   192.33591      16549.309    
    396000   198.39028      16533.678    
    397000   195.41746      16611.334    
    398000   205.51728      16578.085    
    399000   197.07057      16541.708    
    400000   201.76527      16652.147    
    400014   215.23607      16659.515    
Loop time of 37.4279 on 8 procs for 200000 steps with 424 atoms

Performance: 461.687 ns/day, 0.052 hours/ns, 5343.603 timesteps/s, 2.266 Matom-step/s
99.7% CPU use with 8 MPI tasks x no OpenMP threads

MPI task timing breakdown:
Section |  min time  |  avg time  |  max time  |%varavg| %total
---------------------------------------------------------------
Pair    | 11.534     | 11.64      | 11.734     |   2.2 | 31.10
Bond    | 3.381      | 3.4778     | 3.586      |   3.9 |  9.29
Neigh   | 0.85076    | 0.86073    | 0.8711     |   0.8 |  2.30
Comm    | 16.35      | 16.885     | 17.477     |  10.4 | 45.11
Output  | 0.0015272  | 0.0019612  | 0.004691   |   2.3 |  0.01
Modify  | 3.4353     | 3.897      | 4.3433     |  22.2 | 10.41
Other   |            | 0.6654     |            |       |  1.78

Nlocal:             53 ave          53 max          53 min
Histogram: 8 0 0 0 0 0 0 0 0 0
Nghost:           1648 ave        1648 max        1648 min
Histogram: 8 0 0 0 0 0 0 0 0 0
Neighs:        7985.12 ave        8263 max        7714 min
Histogram: 2 0 0 0 2 2 0 0 0 2

Total # of neighbors = 63881
Ave neighs/atom = 150.66274
Ave special neighs/atom = 6.7169811
Neighbor list builds = 2390
Dangerous builds = 0

reset_timestep  0
#############################  Production ###################################
variable        V       equal vol 		    #Volume variable
variable        a	 	equal cella 		#Lattice variable
variable        b	 	equal cellb 		#Lattice variable
variable        c	 	equal cellc 		#Lattice variable
fix 			4 all ave/time 1 ${d3} ${d3} v_V v_a v_b v_c ave running file results_${t}.txt overwrite
fix 			4 all ave/time 1 600000 ${d3} v_V v_a v_b v_c ave running file results_${t}.txt overwrite
fix 			4 all ave/time 1 600000 600000 v_V v_a v_b v_c ave running file results_${t}.txt overwrite
fix 			4 all ave/time 1 600000 600000 v_V v_a v_b v_c ave running file results_200.txt overwrite
fix 			5 all ave/time 1 10000 10000 v_V v_a v_b v_c file summary_${t}.txt
fix 			5 all ave/time 1 10000 10000 v_V v_a v_b v_c file summary_200.txt
thermo          1000
run             ${d3}
run             600000
Generated 10 of 10 mixed pair_coeff terms from arithmetic mixing rule
WARNING: Inconsistent image flags (../domain.cpp:815)
Per MPI rank memory allocation (min/avg/max) = 12.43 | 12.43 | 12.43 Mbytes
   Step          Temp          Volume    
         0   215.23607      16659.515    
      1000   205.99723      16562.001    
      2000   192.14076      16541.066    
      3000   199.30543      16621.31     
      4000   208.31511      16621.477    
      5000   192.76816      16547.902    
      6000   208.94636      16555.111    
      7000   201.38756      16622.001    
      8000   191.58         16459.27     
      9000   199.18974      16466.968    
     10000   208.82319      16670.546    
     11000   194.54647      16538.641    
     12000   190.99247      16591.641    
     13000   196.87393      16644.213    
     14000   207.69309      16603.131    
     15000   199.94954      16626.523    
     16000   202.14457      16604.169    
     17000   209.62127      16513.168    
     18000   202.95671      16595.989    
     19000   198.16086      16598.256    
     20000   185.83709      16595.51     
     21000   197.90301      16641.826    
     22000   197.05129      16510.341    
     23000   196.99148      16543.329    
     24000   185.54658      16656.927    
     25000   202.39374      16516.949    
     26000   202.95909      16594.68     
     27000   197.67564      16636.291    
     28000   209.65914      16566.175    
     29000   205.72264      16530.981    
[...]
    157000   495.2066       16605.276    
    158000   498.83178      16432.82     
    159000   478.18566      16396.783    
    160000   511.41713      16142.858    
    161000   490.99345      16348.866    
    162000   465.13785      16242.427    
    163000   480.22758      16484.747    
    164000   514.56912      16329.58     
    165000   509.95453      16369.224    
    166000   500.96685      16359.13     
    167000   497.50233      16400.213    
    168000   477.45313      16271.866    
    169000   503.35965      16361.434    
    170000   552.78412      16345.578    
    171000   484.45425      16477.351    
    172000   514.07839      16334.247    
    173000   496.11019      16451.006    
    174000   497.06553      16332.45     
    175000   503.27823      16303.63     
    176000   490.22816      16410.645    
    177000   468.22104      16314.233    
    178000   501.28844      16410.669    
    179000   509.9583       16471.685    
    180000   487.68707      16346.473    
    181000   524.53459      16413.118    
    182000   501.26363      16466.704    
    183000   491.56259      16383.345    
    184000   512.3938       16356.906    
    185000   535.83495      16231.218    
    186000   509.12418      16363.563    
    187000   527.63419      16343.491    
    188000   519.44157      16429.319    
    189000   487.65176      16469.648    
    190000   500.28024      16526.553    
    191000   525.97132      16280.419    
    192000   487.09856      16419.263    
    193000   464.33677      16511.119    
    194000   501.13943      16498.409    
    195000   460.98077      16517.591    
    196000   511.62765      16394.414    
    197000   500.04221      16333.002    
    198000   536.23544      16352.376    
    199000   530.65811      16455.998    
    200000   495.71615      16557.861    
    201000   526.44721      16465.135    
    202000   489.09187      16355.468    
    203000   507.31423      16579.33     
    204000   544.17237      16523.717    
    205000   513.04433      16280.945    
    206000   486.72108      16446.435    
    207000   492.90348      16370.735    
    208000   486.0348       16347.329    
    209000   500.47711      16480.798    
    210000   526.0277       16212.054    
    211000   498.89386      16416.684    
    212000   484.213        16353.981    
    213000   510.54047      16287.349    
    214000   488.40395      16389.595    
    215000   506.47539      16455.75     
    216000   490.27034      16348.304    
    217000   484.16998      16397.775    
    218000   496.1615       16317.485    
    219000   480.72108      16270.492    
    220000   533.84402      16343.152    
    221000   529.21202      16355.915    
    222000   480.7684       16370.142    
    223000   509.4049       16487.025    
    224000   539.87816      16430.758    
    225000   495.90239      16473.765    
    226000   501.59464      16332.043    
    227000   516.42839      16442.839    
    228000   509.95665      16363.099    
    229000   537.396        16475.518    
    230000   498.53847      16462.183    
    231000   534.35447      16342.039    
    232000   477.26634      16465.633    
    233000   516.97784      16382.478    
    234000   495.2021       16455.042    
    235000   502.28907      16247.92     
    236000   501.26799      16247.854    
    237000   453.01704      16276.168    
    238000   501.42798      16354.402    
    239000   509.79042      16234.065    
    240000   502.36849      16423.697    
    241000   504.97353      16340.486    
    242000   472.26743      16274.153    
    243000   487.46724      16284.912    
    244000   492.38474      16542.635    
    245000   497.46865      16177.133    
    246000   503.63251      16435.656    
    247000   501.7279       16407.993    
    248000   469.05242      16260.071    
    249000   484.04701      16247.865    
    250000   527.08443      16306.305    
    251000   457.14633      16366.527    
    252000   510.8542       16433.722    
    253000   469.23258      16332.703    
    254000   498.19531      16296.195    
    255000   530.15848      16233.685    
    256000   523.01395      16341.293    
    257000   497.50583      16415.787    
    258000   495.1079       16230.536    
    259000   482.5859       16352.428    
    260000   470.90938      16386.764    
    261000   512.71011      16309.75     
    262000   479.29939      16237.998    
    263000   488.33963      16396.663    
    264000   494.25829      16366.331    
    265000   484.75222      16415.004    
    266000   509.59196      16501.367    
    267000   512.89386      16412.781    
    268000   539.45897      16451.061    
    269000   498.25031      16245.809    
    270000   509.01195      16265.203    
    271000   516.14133      16270.689    
    272000   500.84703      16288.75     
    273000   537.46604      16287.287    
    274000   518.43563      16287.784    
    275000   468.7266       16162.778    
    276000   518.36607      16533.57     
    277000   501.41856      16354.817    
    278000   472.59388      16273.511    
    279000   487.45934      16363.676    
    280000   505.05496      16376.426    
    281000   516.57453      16545.278    
    282000   496.56032      16247.967    
    283000   518.93854      16479.788    
    284000   502.28166      16495.457    
    285000   502.27624      16535.814    
    286000   475.8947       16431.389    
    287000   477.76282      16459.185    
    288000   512.34197      16332.43     
    289000   473.49214      16351.25     
    290000   506.77213      16289.366    
    291000   529.92714      16537.834    
    292000   467.3211       16321.598    
    293000   531.94103      16380.517    
    294000   538.36336      16332.598    
    295000   477.1456       16443.831    
    296000   487.71076      16397.004    
    297000   496.81353      16495.238    
    298000   488.37904      16444.296    
    299000   508.00846      16405.485    
    300000   508.00697      16234.447    
    301000   503.13736      16390.641    
    302000   486.73075      16357.653    
    303000   459.26581      16372.887    
    304000   521.78069      16386.272    
    305000   510.8033       16495.152    
    306000   479.94303      16273.958    
    307000   500.00202      16427.692    
    308000   496.01547      16439.246    
    309000   472.02681      16457.961    
    310000   502.69264      16340.617    
    311000   486.71335      16538.115    
    312000   497.81186      16459.518    
    313000   498.54604      16497.039    
    314000   475.46564      16395.276    
    315000   509.33501      16438.727    
    316000   546.21744      16245.979    
    317000   476.53587      16582.343    
    318000   517.18028      16431.439    
    319000   510.39507      16542.265    
    320000   493.51587      16327.267    
    321000   496.32475      16412.313    
    322000   538.99062      16341.778    
    323000   509.84599      16562.648    
    324000   532.63686      16331.549    
    325000   496.18486      16516.019    
    326000   525.88006      16307.838    
    327000   465.74171      16515.496    
    328000   513.06599      16364.575    
    329000   487.07001      16522.197    
    330000   535.82006      16329.662    
    331000   505.15951      16534.479    
    332000   478.35749      16285.109    
    333000   511.73725      16391.01     
    334000   505.58765      16347.547    
    335000   490.16399      16553.309    
    336000   512.88211      16462.517    
    337000   495.04886      16376.323    
    338000   499.04778      16497.115    
    339000   506.22333      16462.234    
    340000   498.95185      16371.147    
    341000   524.32107      16411.562    
    342000   491.14636      16208.323    
    343000   491.8521       16384.506    
    344000   472.18905      16334.671    
    345000   480.43799      16334.405    
    346000   513.29212      16381.156    
    347000   478.37041      16385.019    
    348000   536.23735      16280.32     
    349000   482.61835      16368.982    
    350000   502.9394       16352.87     
    351000   499.02048      16420.128    
    352000   497.36502      16424.554    
    353000   475.3037       16385.573    
    354000   515.18618      16286.731    
    355000   481.41279      16322.969    
    356000   461.99609      16201.894    
    357000   468.19009      16305.327    
    358000   510.10998      16386.642    
    359000   512.01415      16249.167    
    360000   474.04961      16374.735    
    361000   504.98436      16328.922    
    362000   561.01472      16296.447    
    363000   500.41155      16266.163    
    364000   512.23046      16383.91     
    365000   493.91672      16260.653    
    366000   511.10788      16468.615    
    367000   484.83242      16311.162    
    368000   484.41397      16300.427    
    369000   481.33333      16313.621    
    370000   488.33198      16401.098    
    371000   514.71643      16369.968    
    372000   490.69907      16420.645    
    373000   502.97015      16451.85     
    374000   484.04037      16321.37     
    375000   498.28937      16451.383    
    376000   480.6364       16459.44     
    377000   504.69763      16454.385    
    378000   470.45211      16409.348    
    379000   477.4058       16561.243    
    380000   520.06875      16508.865    
    381000   474.02252      16516.343    
    382000   515.96862      16426.068    
    383000   492.13454      16322.181    
    384000   483.75228      16446.32     
    385000   501.13479      16466.13     
    386000   520.76197      16312.561    
    387000   529.03847      16438.682    
    388000   496.09375      16287.219    
    389000   485.47362      16519.459    
    390000   533.86821      16302.966    
    391000   478.46515      16350.447    
    392000   527.61354      16275.78     
    393000   542.01593      16365.338    
    394000   478.11295      16514.164    
    395000   497.15066      16372.571    
    396000   501.41893      16446.948    
    397000   509.58294      16370.755    
    398000   535.86977      16327.305    
    399000   541.16111      16290.346    
    400000   507.63944      16434.562    
    401000   526.26408      16410.664    
    402000   516.64691      16480.885    
    403000   535.92723      16265.587    
    404000   503.88189      16225.4      
    405000   506.40777      16212.502    
    406000   522.09675      16272.051    
    407000   493.37017      16284.582    
    408000   530.73866      16358.355    
    409000   469.09854      16444.543    
    410000   541.22175      16387.247    
    411000   473.49536      16262.484    
    412000   505.97827      16590.802    
    413000   524.89192      16415.37     
    414000   522.60738      16365.259    
    415000   488.34706      16408.72     
    416000   494.89642      16379.775    
    417000   519.13278      16366.912    
    418000   521.18582      16414.224    
    419000   513.37434      16502.639    
    420000   521.02536      16429.52     
    421000   500.66049      16352.468    
    422000   495.59195      16372.058    
    423000   482.68886      16417.759    
    424000   485.22238      16415.568    
    425000   469.66449      16365.814    
    426000   498.0092       16408.633    
    427000   464.08798      16334.82     
    428000   466.78881      16498.851    
    429000   521.10395      16599.957    
    430000   484.12449      16537.011    
    431000   526.836        16310.238    
    432000   510.51732      16318.623    
    433000   506.37155      16361.936    
    434000   535.51457      16387.346    
    435000   494.68862      16574.16     
    436000   492.90052      16365.244    
    437000   518.71016      16481.229    
    438000   465.74737      16585.264    
    439000   517.93331      16405.887    
    440000   479.04826      16440.104    
    441000   520.48883      16329.751    
    442000   521.09371      16520.781    
    443000   501.96758      16242.364    
    444000   472.86643      16266.835    
    445000   506.37701      16322.374    
    446000   506.52503      16356.257    
    447000   484.80336      16277.824    
    448000   496.10745      16466.232    
    449000   512.11371      16366.492    
    450000   523.10055      16479.214    
    451000   493.08141      16302.8      
    452000   480.36537      16475.633    
    453000   513.35463      16357.775    
    454000   507.939        16368.955    
    455000   505.28017      16332.692    
    456000   480.07199      16325.586    
    457000   535.67243      16275.101    
    458000   553.0151       16357.557    
    459000   532.59778      16585.194    
    460000   524.89186      16264.354    
    461000   518.57671      16290.13     
    462000   473.38501      16333.98     
    463000   484.41616      16383.384    
    464000   504.22274      16217.362    
    465000   491.44592      16292.208    
    466000   527.87105      16432.157    
    467000   504.7759       16312.868    
    468000   451.22434      16449.821    
    469000   469.915        16302.286    
    470000   485.96143      16383.233    
    471000   489.74371      16688.216    
    472000   519.63247      16423.402    
    473000   510.36191      16419.31     
    474000   488.93987      16381.865    
    475000   466.83617      16468.946    
    476000   481.12685      16518.349    
    477000   517.00603      16327.753    
    478000   451.95041      16441.297    
    479000   534.75354      16353.398    
    480000   481.21253      16292.279    
    481000   501.74081      16379.234    
    482000   486.07152      16228.287    
    483000   501.33724      16283.794    
    484000   475.36946      16491.495    
    485000   500.79845      16376.311    
    486000   487.31212      16354.627    
    487000   503.15915      16421.951    
    488000   464.37317      16462.763    
    489000   542.7772       16325.842    
    490000   497.66327      16364.696    
    491000   470.93905      16488.283    
    492000   530.56057      16500.516    
    493000   486.25776      16352.556    
    494000   538.50307      16270.146    
    495000   477.67166      16367.879    
    496000   465.33274      16325.754    
    497000   539.72834      16379.591    
    498000   480.29966      16501.312    
    499000   489.72467      16360.308    
    500000   507.5254       16420.665    
    501000   504.01088      16420.198    
    502000   487.74401      16546.112    
    503000   507.97466      16512.881    
    504000   521.05195      16439.265    
    505000   534.62022      16544.361    
    506000   526.38945      16520.116    
    507000   480.49382      16479.893    
    508000   503.37897      16567.981    
    509000   497.39108      16535.696    
    510000   520.33538      16428.033    
    511000   473.50571      16265.484    
    512000   473.66572      16408.485    
    513000   502.17053      16521.959    
    514000   494.94864      16428.814    
    515000   539.65116      16502.812    
    516000   499.3838       16199.37     
    517000   528.13695      16442.04     
    518000   478.79471      16481.404    
    519000   504.85869      16363.153    
    520000   507.92817      16212.883    
    521000   505.47854      16331.682    
    522000   486.50682      16440.432    
    523000   518.42091      16331.883    
    524000   502.13774      16423.253    
    525000   508.28884      16335.491    
    526000   465.47419      16557.194    
    527000   504.85581      16422.618    
    528000   481.50624      16429.682    
    529000   501.34099      16597.177    
    530000   493.50632      16459.531    
    531000   521.5258       16361.709    
    532000   517.37639      16311.252    
    533000   515.50942      16296.445    
    534000   495.52618      16351.205    
    535000   492.86116      16575.775    
    536000   485.50716      16592.159    
    537000   507.4119       16432.247    
    538000   466.34017      16445.911    
    539000   546.31221      16461.878    
    540000   487.45532      16594.697    
    541000   502.46947      16363.336    
    542000   522.21773      16448.198    
    543000   464.27555      16355.101    
    544000   491.5847       16573.264    
    545000   471.87297      16463.668    
    546000   505.76581      16543.966    
    547000   530.4477       16342.095    
    548000   490.95438      16560.682    
    549000   487.34051      16418.882    
    550000   513.88849      16513.174    
    551000   486.59497      16479.043    
    552000   543.81434      16368.925    
    553000   473.92251      16279.194    
    554000   535.35105      16132.176    
    555000   463.06475      16256.577    
    556000   482.45011      16349.868    
    557000   491.54196      16465.632    
    558000   491.98004      16225.478    
    559000   488.88113      16312.872    
    560000   462.26147      16152.459    
    561000   505.81267      16424.007    
    562000   481.03662      16380.157    
    563000   513.43532      16264.046    
    564000   501.26772      16354.344    
    565000   506.48255      16448.068    
    566000   508.61647      16487.868    
    567000   524.3639       16399.845    
    568000   473.23759      16335.068    
    569000   527.72216      16426.455    
    570000   497.71208      16439.338    
    571000   481.39609      16505.643    
    572000   486.00632      16599.813    
    573000   509.84432      16449.167    
    574000   470.35962      16423.812    
    575000   514.66108      16272.378    
    576000   525.05062      16544.951    
    577000   506.70936      16321.583    
    578000   525.95463      16439.091    
    579000   493.41375      16452.008    
    580000   493.98126      16450.445    
    581000   504.58225      16414.001    
    582000   497.61168      16418.131    
    583000   518.18656      16358.159    
    584000   521.43034      16367.441    
    585000   481.1871       16323.581    
    586000   494.5211       16373.393    
    587000   506.64415      16334.402    
    588000   522.08305      16279.847    
    589000   500.95957      16459.391    
    590000   456.88157      16394.037    
    591000   501.81304      16338.861    
    592000   478.57648      16419.697    
    593000   528.00209      16277.272    
    594000   529.95285      16367.842    
    595000   470.16189      16470.367    
    596000   518.29057      16487.037    
    597000   520.59139      16402.535    
    598000   520.71845      16444.596    
    599000   493.05152      16496.189    
    600000   518.30119      16308.718    
Loop time of 121.115 on 8 procs for 600000 steps with 424 atoms

Performance: 428.023 ns/day, 0.056 hours/ns, 4953.970 timesteps/s, 2.100 Matom-step/s
99.7% CPU use with 8 MPI tasks x no OpenMP threads

MPI task timing breakdown:
Section |  min time  |  avg time  |  max time  |%varavg| %total
---------------------------------------------------------------
Pair    | 36.953     | 37.489     | 38.809     |   8.6 | 30.95
Bond    | 10.152     | 10.452     | 10.74      |   6.3 |  8.63
Neigh   | 5.5836     | 5.6081     | 5.6291     |   0.6 |  4.63
Comm    | 48.537     | 50.481     | 51.695     |  15.6 | 41.68
Output  | 0.0060959  | 0.006847   | 0.010687   |   1.8 |  0.01
Modify  | 14.147     | 15.078     | 15.992     |  22.6 | 12.45
Other   |            | 2.001      |            |       |  1.65

Nlocal:             53 ave          54 max          52 min
Histogram: 1 0 0 0 0 6 0 0 0 1
Nghost:        1635.62 ave        1645 max        1629 min
Histogram: 1 1 1 2 0 1 1 0 0 1
Neighs:         8188.5 ave        8512 max        7743 min
Histogram: 2 0 0 0 0 1 2 1 0 2

Total # of neighbors = 65508
Ave neighs/atom = 154.5
Ave special neighs/atom = 6.7169811
Neighbor list builds = 14245
Dangerous builds = 0

unfix           1

print "All done!"
All done!
clear
next t
jump in.IRMOF-1
Total wall time: 0:15:45
