Created on Tue Aug 22 17:20:42 2023 

        1248 atoms
        1584 bonds
        3072 angles
        3072 dihedrals
        1728 impropers

           4 atom types
           6 bond types
           8 angle types
           3 dihedral types
           1 improper types
           0.000000  37.254600 xlo xhi
           0.000000  32.263430 ylo yhi
           0.000000  30.418254 zlo zhi
          18.627300  18.627300  10.754477 xy xz yz

Masses

    1    63.546000000 # Cu3+1
    2     1.007940000 # H_
    3    12.010700000 # C_R
    4    15.999400000 # O_R

Bond Coeffs

    1       57.988603        2.604000  # Cu3+1 Cu3+1
    2      190.026252        1.918161  # Cu3+1 O_R
    3      357.440381        1.081418  # H_ C_R
    4      391.669513        1.458000  # C_R C_R
    5      462.655054        1.379256  # C_R C_R
    6      646.680887        1.311940  # C_R O_R

Angle Coeffs

    1                      fourier       68.052595        0.343737        0.374972        0.281246 # Cu3+1 Cu3+1 O_R
    2                      fourier      152.421295        0.343737        0.374972        0.281246 # O_R Cu3+1 O_R
    3              cosine/periodic      102.183280              -1               3 # C_R C_R C_R
    4              cosine/periodic      111.297508              -1               3 # C_R C_R C_R
    5              cosine/periodic      131.755710              -1               3 # C_R C_R O_R
    6              cosine/periodic      187.136328              -1               3 # O_R C_R O_R
    7              cosine/periodic       57.289016              -1               3 # H_ C_R C_R
    8              cosine/periodic       74.969428              -1               3 # Cu3+1 O_R C_R

Dihedral Coeffs

    1        1.250000              -1               2 # C_R C_R C_R O_R
    2        3.368555              -1               2 # C_R C_R C_R H_
    3        6.737110              -1               2 # C_R C_R O_R Cu3+1

Improper Coeffs

    1        2.000000        1.000000       -1.000000        0.000000               0 # C_R C_R C_R C_R

Pair Coeffs

    1        0.005000        3.113691 # Cu3+1 Cu3+1
    2        0.044000        2.571134 # H_ H_
    3        0.105000        3.430851 # C_R C_R
    4        0.060000        3.118146 # O_R O_R

Atoms

       1      444        1     0.00000   14.62774    2.30915    6.53126
       2      444        1     0.00000    5.31409    9.20427    0.00000
       3      444        1     0.00000   13.31321    3.06809    8.67787
       4      444        1     0.00000    3.99956    6.92744    0.00000
       5      444        1     0.00000   14.62774    6.92744    0.00000
       6      444        1     0.00000   13.31321   18.44086    6.53126
       7      444        1     0.00000   13.31321    9.20427    0.00000
       8      444        1     0.00000    5.31409    3.06809    8.67787
       9      444        1     0.00000   19.94183   16.13172    0.00000
      10      444        1     0.00000    9.31365    9.99553    8.67787
      11      444        1     0.00000   17.31277   16.13172    0.00000
      12      444        1     0.00000    9.31365   11.51342    6.53126
      13      444        2     0.00000   25.10587   14.49488    7.78099
      14      444        2     0.00000   20.64277   11.91811    0.49278
      15      444        2     0.00000   16.61183    4.43730   11.07224
      16      444        2     0.00000   12.14873   12.16761   11.07224
      17      444        2     0.00000   18.62730    8.42721    0.49278
      18      444        2     0.00000   18.62730    3.27366    7.78099
      19      444        2     0.00000   23.09040   15.65852   11.07224
      20      444        2     0.00000   14.16420   15.65852   11.07224
      21      444        2     0.00000   20.64277    4.43730   11.07224
      22      444        2     0.00000   25.10587   12.16761   11.07224
      23      444        2     0.00000   16.61183   11.91811    0.49278
      24      444        2     0.00000   12.14873   14.49488    7.78099
      25      444        2     0.00000   12.14873    7.01407    7.42814
      26      444        2     0.00000   16.61183    9.59084   14.71635
      27      444        2     0.00000   25.10587    9.34134    4.13688
      28      444        2     0.00000   20.64277   17.07166    4.13688
      29      444        2     0.00000   20.64277    9.59084   14.71635
      30      444        2     0.00000   25.10587    7.01407    7.42814
      31      444        2     0.00000   12.14873    9.34134    4.13688
      32      444        2     0.00000   16.61183   17.07166    4.13688
      33      444        2     0.00000   23.09040    5.85044    4.13688
      34      444        2     0.00000   14.16420    5.85044    4.13688
      35      444        2     0.00000   18.62730   13.08175   14.71635
      36      444        2     0.00000   18.62730   18.23529    7.42814
      37      444        3     0.00000   17.41653   17.71262    5.88593
      38      444        3     0.00000   24.04784    6.22684    5.88593
      39      444        3     0.00000   13.20676    7.62492    3.90875
      40      444        3     0.00000   19.83807   11.45352   14.73764
      41      444        3     0.00000   11.99598    8.32396    5.88593
      42      444        3     0.00000   25.25862    8.32396    5.88593
      43      444        3     0.00000   18.62730    9.35639   14.73764
      44      444        3     0.00000   18.62730   17.01358    3.90875
      45      444        3     0.00000   17.41653   11.45352   14.73764
      46      444        3     0.00000   24.04784    7.62492    3.90875
      47      444        3     0.00000   19.83807   17.71262    5.88593
      48      444        3     0.00000   13.20676    6.22684    5.88593
      49      444        3     0.00000   13.20676   15.28211    9.32319
      50      444        3     0.00000   19.83807    3.79633    9.32319
      51      444        3     0.00000   24.04784   13.88403   11.30038
      52      444        3     0.00000   17.41653   10.05544    0.47148
      53      444        3     0.00000   24.04784   15.28211    9.32319
      54      444        3     0.00000   17.41653    3.79633    9.32319
      55      444        3     0.00000   19.83807   10.05544    0.47148
      56      444        3     0.00000   13.20676   13.88403   11.30038
      57      444        3     0.00000   18.62730   12.15256    0.47148
      58      444        3     0.00000   18.62730    4.49537   11.30038
      59      444        3     0.00000   11.99598   13.18499    9.32319
      60      444        3     0.00000   25.25862   13.18499    9.32319
      61      444        3     0.00000   23.69206   13.67862   12.74069
      62      444        3     0.00000   16.12193    9.30800    0.37871
      63      444        3     0.00000   21.13267    3.45972    8.64943
      64      444        3     0.00000   13.56254   16.57157    8.64943
      65      444        3     0.00000   18.62730   13.64743    0.37871
      66      444        3     0.00000   18.62730    4.90619   12.74069
      67      444        3     0.00000   26.19743   12.23214    8.64943
      68      444        3     0.00000   11.05717   12.23214    8.64943
      69      444        3     0.00000   16.12193    3.45972    8.64943
      70      444        3     0.00000   23.69206   16.57157    8.64943
      71      444        3     0.00000   21.13267    9.30800    0.37871
      72      444        3     0.00000   13.56254   13.67862   12.74069
      73      444        3     0.00000   13.56254    7.83033    2.46844
      74      444        3     0.00000   21.13267   12.20095   14.83042
      75      444        3     0.00000   23.69206    4.93738    6.55970
      76      444        3     0.00000   16.12193   18.04924    6.55970
      77      444        3     0.00000   16.12193   12.20095   14.83042
      78      444        3     0.00000   23.69206    7.83033    2.46844
      79      444        3     0.00000   13.56254    4.93738    6.55970
      80      444        3     0.00000   21.13267   18.04924    6.55970
      81      444        3     0.00000   26.19743    9.27681    6.55970
      82      444        3     0.00000   11.05717    9.27681    6.55970
      83      444        3     0.00000   18.62730    7.86152   14.83042
      84      444        3     0.00000   18.62730   16.60276    2.46844
      85      444        3     0.00000   18.62730   17.93632    6.54601
      86      444        3     0.00000   23.63804    6.46559    4.57186
      87      444        3     0.00000   13.61656    6.46559    4.57186
      88      444        3     0.00000   18.62730   12.15041   14.72852
      89      444        3     0.00000   12.40764    8.55949    4.57186
      90      444        3     0.00000   24.84696    7.16356    6.54601
      91      444        3     0.00000   19.83621   10.05651   14.72852
      92      444        3     0.00000   17.41839   17.23835    4.57186
      93      444        3     0.00000   17.41839   10.05651   14.72852
      94      444        3     0.00000   24.84696    8.55949    4.57186
      95      444        3     0.00000   19.83621   17.23835    4.57186
      96      444        3     0.00000   12.40764    7.16356    6.54601
      97      444        3     0.00000   12.40764   14.34540    8.66312
      98      444        3     0.00000   19.83621    4.27060   10.63726
      99      444        3     0.00000   24.84696   12.94947   10.63726
     100      444        3     0.00000   17.41839   11.45244    0.48061
     101      444        3     0.00000   23.63804   15.04336   10.63726
     102      444        3     0.00000   18.62730    3.57264    8.66312
     103      444        3     0.00000   18.62730    9.35855    0.48061
     104      444        3     0.00000   13.61656   15.04336   10.63726
     105      444        3     0.00000   19.83621   11.45244    0.48061
     106      444        3     0.00000   17.41839    4.27060   10.63726
     107      444        3     0.00000   12.40764   12.94947   10.63726
     108      444        3     0.00000   24.84696   14.34540    8.66312
     109      444        4     0.00000   24.12925   12.64544   13.29658
     110      444        4     0.00000   15.07153    9.98714    0.32350
     111      444        4     0.00000   22.18307    3.63405    9.30814
     112      444        4     0.00000   13.12535   16.75128    7.49004
     113      444        4     0.00000   19.74065   14.21753    0.32350
     114      444        4     0.00000   17.51395    5.04417   13.29658
     115      444        4     0.00000   26.57166   12.52090    7.49004
     116      444        4     0.00000   10.68294   11.23531    9.30814
     117      444        4     0.00000   16.18489    2.99125    7.49004
     118      444        4     0.00000   23.01589   17.39408    9.30814
     119      444        4     0.00000   21.06971    8.05876    0.32350
     120      444        4     0.00000   14.23871   14.57382   13.29658
     121      444        4     0.00000   14.23871    6.93513    1.91255
     122      444        4     0.00000   21.06971   13.45019   14.88563
     123      444        4     0.00000   23.01589    4.11488    5.90099
     124      444        4     0.00000   16.18489   18.51770    7.71909
     125      444        4     0.00000   15.07153   11.52181   14.88563
     126      444        4     0.00000   24.12925    8.86352    1.91255
     127      444        4     0.00000   13.12535    4.75767    7.71909
     128      444        4     0.00000   22.18307   17.87491    5.90099
     129      444        4     0.00000   26.57166    8.98805    7.71909
     130      444        4     0.00000   10.68294   10.27364    5.90099
     131      444        4     0.00000   19.74065    7.29143   14.88563
     132      444        4     0.00000   17.51395   16.46478    1.91255
     133      444        4     0.00000   13.12535    8.86352    1.91255
     134      444        4     0.00000   22.18307   11.52181   14.88563
     135      444        4     0.00000   15.07153   17.87491    5.90099
     136      444        4     0.00000   24.12925    4.75767    7.71909
     137      444        4     0.00000   17.51395    7.29143   14.88563
     138      444        4     0.00000   19.74065   16.46478    1.91255
     139      444        4     0.00000   10.68294    8.98805    7.71909
     140      444        4     0.00000   26.57166   10.27364    5.90099
     141      444        4     0.00000   21.06971   18.51770    7.71909
     142      444        4     0.00000   14.23871    4.11488    5.90099
     143      444        4     0.00000   16.18489   13.45019   14.88563
     144      444        4     0.00000   23.01589    6.93513    1.91255
     145      444        4     0.00000   23.01589   14.57382   13.29658
     146      444        4     0.00000   16.18489    8.05876    0.32350
     147      444        4     0.00000   14.23871   17.39408    9.30814
     148      444        4     0.00000   21.06971    2.99125    7.49004
     149      444        4     0.00000   22.18307    9.98714    0.32350
     150      444        4     0.00000   13.12535   12.64544   13.29658
     151      444        4     0.00000   24.12925   16.75128    7.49004
     152      444        4     0.00000   15.07153    3.63405    9.30814
     153      444        4     0.00000   10.68294   12.52090    7.49004
     154      444        4     0.00000   26.57166   11.23531    9.30814
     155      444        4     0.00000   17.51395   14.21753    0.32350
     156      444        4     0.00000   19.74065    5.04417   13.29658
     157      444        1     0.00000   23.94139    7.68639   21.74038
     158      444        1     0.00000   14.62774   14.58151   15.20913
     159      444        1     0.00000   22.62686    8.44533   23.88700
     160      444        1     0.00000   13.31321   12.30468   15.20913
     161      444        1     0.00000   23.94139   12.30468   15.20913
     162      444        1     0.00000   22.62686   23.81810   21.74038
     163      444        1     0.00000   22.62686   14.58151   15.20913
     164      444        1     0.00000   14.62774    8.44533   23.88700
     165      444        1     0.00000   29.25548   21.50895   15.20913
     166      444        1     0.00000   18.62730   15.37277   23.88700
     167      444        1     0.00000   26.62642   21.50895   15.20913
     168      444        1     0.00000   18.62730   16.89066   21.74038
     169      444        2     0.00000   34.41952   19.87212   22.99012
     170      444        2     0.00000   29.95642   17.29535   15.70190
     171      444        2     0.00000   25.92548    9.81454   26.28137
     172      444        2     0.00000   21.46238   17.54485   26.28137
     173      444        2     0.00000   27.94095   13.80445   15.70190
     174      444        2     0.00000   27.94095    8.65090   22.99012
     175      444        2     0.00000   32.40405   21.03576   26.28137
     176      444        2     0.00000   23.47785   21.03576   26.28137
     177      444        2     0.00000   29.95642    9.81454   26.28137
     178      444        2     0.00000   34.41952   17.54485   26.28137
     179      444        2     0.00000   25.92548   17.29535   15.70190
     180      444        2     0.00000   21.46238   19.87212   22.99012
     181      444        2     0.00000   21.46238   12.39131   22.63726
     182      444        2     0.00000   25.92548   14.96808   29.92548
     183      444        2     0.00000   34.41952   14.71858   19.34601
     184      444        2     0.00000   29.95642   22.44889   19.34601
     185      444        2     0.00000   29.95642   14.96808   29.92548
     186      444        2     0.00000   34.41952   12.39131   22.63726
     187      444        2     0.00000   21.46238   14.71858   19.34601
     188      444        2     0.00000   25.92548   22.44889   19.34601
     189      444        2     0.00000   32.40405   11.22767   19.34601
     190      444        2     0.00000   23.47785   11.22767   19.34601
     191      444        2     0.00000   27.94095   18.45898   29.92548
     192      444        2     0.00000   27.94095   23.61253   22.63726
     193      444        3     0.00000   26.73018   23.08986   21.09506
     194      444        3     0.00000   33.36149   11.60408   21.09506
     195      444        3     0.00000   22.52041   13.00216   19.11787
     196      444        3     0.00000   29.15172   16.83076   29.94677
     197      444        3     0.00000   21.30963   13.70120   21.09506
     198      444        3     0.00000   34.57227   13.70120   21.09506
     199      444        3     0.00000   27.94095   14.73363   29.94677
     200      444        3     0.00000   27.94095   22.39082   19.11787
     201      444        3     0.00000   26.73018   16.83076   29.94677
     202      444        3     0.00000   33.36149   13.00216   19.11787
     203      444        3     0.00000   29.15172   23.08986   21.09506
     204      444        3     0.00000   22.52041   11.60408   21.09506
     205      444        3     0.00000   22.52041   20.65935   24.53232
     206      444        3     0.00000   29.15172    9.17357   24.53232
     207      444        3     0.00000   33.36149   19.26127   26.50951
     208      444        3     0.00000   26.73018   15.43267   15.68061
     209      444        3     0.00000   33.36149   20.65935   24.53232
     210      444        3     0.00000   26.73018    9.17357   24.53232
     211      444        3     0.00000   29.15172   15.43267   15.68061
     212      444        3     0.00000   22.52041   19.26127   26.50951
     213      444        3     0.00000   27.94095   17.52980   15.68061
     214      444        3     0.00000   27.94095    9.87261   26.50951
     215      444        3     0.00000   21.30963   18.56223   24.53232
     216      444        3     0.00000   34.57227   18.56223   24.53232
     217      444        3     0.00000   33.00571   19.05586   27.94981
     218      444        3     0.00000   25.43558   14.68524   15.58783
     219      444        3     0.00000   30.44632    8.83695   23.85856
     220      444        3     0.00000   22.87619   21.94881   23.85856
     221      444        3     0.00000   27.94095   19.02467   15.58783
     222      444        3     0.00000   27.94095   10.28343   27.94981
     223      444        3     0.00000   35.51108   17.60938   23.85856
     224      444        3     0.00000   20.37082   17.60938   23.85856
     225      444        3     0.00000   25.43558    8.83695   23.85856
     226      444        3     0.00000   33.00571   21.94881   23.85856
     227      444        3     0.00000   30.44632   14.68524   15.58783
     228      444        3     0.00000   22.87619   19.05586   27.94981
     229      444        3     0.00000   22.87619   13.20757   17.67757
     230      444        3     0.00000   30.44632   17.57819   30.03955
     231      444        3     0.00000   33.00571   10.31462   21.76882
     232      444        3     0.00000   25.43558   23.42648   21.76882
     233      444        3     0.00000   25.43558   17.57819   30.03955
     234      444        3     0.00000   33.00571   13.20757   17.67757
     235      444        3     0.00000   22.87619   10.31462   21.76882
     236      444        3     0.00000   30.44632   23.42648   21.76882
     237      444        3     0.00000   35.51108   14.65405   21.76882
     238      444        3     0.00000   20.37082   14.65405   21.76882
     239      444        3     0.00000   27.94095   13.23876   30.03955
     240      444        3     0.00000   27.94095   21.98000   17.67757
     241      444        3     0.00000   27.94095   23.31355   21.75513
     242      444        3     0.00000   32.95169   11.84283   19.78099
     243      444        3     0.00000   22.93021   11.84283   19.78099
     244      444        3     0.00000   27.94095   17.52765   29.93765
     245      444        3     0.00000   21.72129   13.93673   19.78099
     246      444        3     0.00000   34.16061   12.54080   21.75513
     247      444        3     0.00000   29.14986   15.43375   29.93765
     248      444        3     0.00000   26.73204   22.61559   19.78099
     249      444        3     0.00000   26.73204   15.43375   29.93765
     250      444        3     0.00000   34.16061   13.93673   19.78099
     251      444        3     0.00000   29.14986   22.61559   19.78099
     252      444        3     0.00000   21.72129   12.54080   21.75513
     253      444        3     0.00000   21.72129   19.72263   23.87225
     254      444        3     0.00000   29.14986    9.64784   25.84639
     255      444        3     0.00000   34.16061   18.32670   25.84639
     256      444        3     0.00000   26.73204   16.82968   15.68974
     257      444        3     0.00000   32.95169   20.42060   25.84639
     258      444        3     0.00000   27.94095    8.94988   23.87225
     259      444        3     0.00000   27.94095   14.73578   15.68974
     260      444        3     0.00000   22.93021   20.42060   25.84639
     261      444        3     0.00000   29.14986   16.82968   15.68974
     262      444        3     0.00000   26.73204    9.64784   25.84639
     263      444        3     0.00000   21.72129   18.32670   25.84639
     264      444        3     0.00000   34.16061   19.72263   23.87225
     265      444        4     0.00000   33.44290   18.02267   28.50571
     266      444        4     0.00000   24.38518   15.36438   15.53262
     267      444        4     0.00000   31.49672    9.01128   24.51726
     268      444        4     0.00000   22.43900   22.12852   22.69917
     269      444        4     0.00000   29.05430   19.59476   15.53262
     270      444        4     0.00000   26.82760   10.42141   28.50571
     271      444        4     0.00000   35.88531   17.89814   22.69917
     272      444        4     0.00000   19.99659   16.61255   24.51726
     273      444        4     0.00000   25.49854    8.36849   22.69917
     274      444        4     0.00000   32.32954   22.77131   24.51726
     275      444        4     0.00000   30.38336   13.43600   15.53262
     276      444        4     0.00000   23.55236   19.95106   28.50571
     277      444        4     0.00000   23.55236   12.31237   17.12167
     278      444        4     0.00000   30.38336   18.82743   30.09476
     279      444        4     0.00000   32.32954    9.49212   21.11012
     280      444        4     0.00000   25.49854   23.89494   22.92821
     281      444        4     0.00000   24.38518   16.89905   30.09476
     282      444        4     0.00000   33.44290   14.24076   17.12167
     283      444        4     0.00000   22.43900   10.13491   22.92821
     284      444        4     0.00000   31.49672   23.25215   21.11012
     285      444        4     0.00000   35.88531   14.36529   22.92821
     286      444        4     0.00000   19.99659   15.65088   21.11012
     287      444        4     0.00000   29.05430   12.66867   30.09476
     288      444        4     0.00000   26.82760   21.84202   17.12167
     289      444        4     0.00000   22.43900   14.24076   17.12167
     290      444        4     0.00000   31.49672   16.89905   30.09476
     291      444        4     0.00000   24.38518   23.25215   21.11012
     292      444        4     0.00000   33.44290   10.13491   22.92821
     293      444        4     0.00000   26.82760   12.66867   30.09476
     294      444        4     0.00000   29.05430   21.84202   17.12167
     295      444        4     0.00000   19.99659   14.36529   22.92821
     296      444        4     0.00000   35.88531   15.65088   21.11012
     297      444        4     0.00000   30.38336   23.89494   22.92821
     298      444        4     0.00000   23.55236    9.49212   21.11012
     299      444        4     0.00000   25.49854   18.82743   30.09476
     300      444        4     0.00000   32.32954   12.31237   17.12167
     301      444        4     0.00000   32.32954   19.95106   28.50571
     302      444        4     0.00000   25.49854   13.43600   15.53262
     303      444        4     0.00000   23.55236   22.77131   24.51726
     304      444        4     0.00000   30.38336    8.36849   22.69917
     305      444        4     0.00000   31.49672   15.36438   15.53262
     306      444        4     0.00000   22.43900   18.02267   28.50571
     307      444        4     0.00000   33.44290   22.12852   22.69917
     308      444        4     0.00000   24.38518    9.01128   24.51726
     309      444        4     0.00000   19.99659   17.89814   22.69917
     310      444        4     0.00000   35.88531   16.61255   24.51726
     311      444        4     0.00000   26.82760   19.59476   15.53262
     312      444        4     0.00000   29.05430   10.42141   28.50571
     313      444        1     0.00000   23.94139   18.44086    6.53126
     314      444        1     0.00000   14.62774   25.33599    0.00000
     315      444        1     0.00000   22.62686   19.19981    8.67787
     316      444        1     0.00000   13.31321   23.05916    0.00000
     317      444        1     0.00000   23.94139   23.05916    0.00000
     318      444        1     0.00000   22.62686   34.57258    6.53126
     319      444        1     0.00000   22.62686   25.33599    0.00000
     320      444        1     0.00000   14.62774   19.19981    8.67787
     321      444        1     0.00000   29.25548   32.26343    0.00000
     322      444        1     0.00000   18.62730   26.12725    8.67787
     323      444        1     0.00000   26.62642   32.26343    0.00000
     324      444        1     0.00000   18.62730   27.64514    6.53126
     325      444        2     0.00000   34.41952   30.62660    7.78099
     326      444        2     0.00000   29.95642   28.04983    0.49278
     327      444        2     0.00000   25.92548   20.56901   11.07224
     328      444        2     0.00000   21.46238   28.29933   11.07224
     329      444        2     0.00000   27.94095   24.55892    0.49278
     330      444        2     0.00000   27.94095   19.40538    7.78099
     331      444        2     0.00000   32.40405   31.79023   11.07224
     332      444        2     0.00000   23.47785   31.79023   11.07224
     333      444        2     0.00000   29.95642   20.56901   11.07224
     334      444        2     0.00000   34.41952   28.29933   11.07224
     335      444        2     0.00000   25.92548   28.04983    0.49278
     336      444        2     0.00000   21.46238   30.62660    7.78099
     337      444        2     0.00000   21.46238   23.14578    7.42814
     338      444        2     0.00000   25.92548   25.72256   14.71635
     339      444        2     0.00000   34.41952   25.47305    4.13688
     340      444        2     0.00000   29.95642   33.20337    4.13688
     341      444        2     0.00000   29.95642   25.72256   14.71635
     342      444        2     0.00000   34.41952   23.14578    7.42814
     343      444        2     0.00000   21.46238   25.47305    4.13688
     344      444        2     0.00000   25.92548   33.20337    4.13688
     345      444        2     0.00000   32.40405   21.98215    4.13688
     346      444        2     0.00000   23.47785   21.98215    4.13688
     347      444        2     0.00000   27.94095   29.21346   14.71635
     348      444        2     0.00000   27.94095   34.36701    7.42814
     349      444        3     0.00000   26.73018   33.84434    5.88593
     350      444        3     0.00000   33.36149   22.35856    5.88593
     351      444        3     0.00000   22.52041   23.75664    3.90875
     352      444        3     0.00000   29.15172   27.58523   14.73764
     353      444        3     0.00000   21.30963   24.45568    5.88593
     354      444        3     0.00000   34.57227   24.45568    5.88593
     355      444        3     0.00000   27.94095   25.48811   14.73764
     356      444        3     0.00000   27.94095   33.14530    3.90875
     357      444        3     0.00000   26.73018   27.58523   14.73764
     358      444        3     0.00000   33.36149   23.75664    3.90875
     359      444        3     0.00000   29.15172   33.84434    5.88593
     360      444        3     0.00000   22.52041   22.35856    5.88593
     361      444        3     0.00000   22.52041   31.41383    9.32319
     362      444        3     0.00000   29.15172   19.92805    9.32319
     363      444        3     0.00000   33.36149   30.01574   11.30038
     364      444        3     0.00000   26.73018   26.18715    0.47148
     365      444        3     0.00000   33.36149   31.41383    9.32319
     366      444        3     0.00000   26.73018   19.92805    9.32319
     367      444        3     0.00000   29.15172   26.18715    0.47148
     368      444        3     0.00000   22.52041   30.01574   11.30038
     369      444        3     0.00000   27.94095   28.28427    0.47148
     370      444        3     0.00000   27.94095   20.62709   11.30038
     371      444        3     0.00000   21.30963   29.31670    9.32319
     372      444        3     0.00000   34.57227   29.31670    9.32319
     373      444        3     0.00000   33.00571   29.81033   12.74069
     374      444        3     0.00000   25.43558   25.43971    0.37871
     375      444        3     0.00000   30.44632   19.59143    8.64943
     376      444        3     0.00000   22.87619   32.70329    8.64943
     377      444        3     0.00000   27.94095   29.77915    0.37871
     378      444        3     0.00000   27.94095   21.03791   12.74069
     379      444        3     0.00000   35.51108   28.36386    8.64943
     380      444        3     0.00000   20.37082   28.36386    8.64943
     381      444        3     0.00000   25.43558   19.59143    8.64943
     382      444        3     0.00000   33.00571   32.70329    8.64943
     383      444        3     0.00000   30.44632   25.43971    0.37871
     384      444        3     0.00000   22.87619   29.81033   12.74069
     385      444        3     0.00000   22.87619   23.96205    2.46844