Created on Thu Nov 23 15:36:35 2023 

        2064 atoms
        2496 bonds
        4272 angles
        5184 dihedrals
        3168 impropers

           5 atom types
           8 bond types
          15 angle types
           3 dihedral types
           1 improper types
           0.000000  38.606400 xlo xhi
           0.000000  36.185000 ylo yhi
           0.000000  26.087395 zlo zhi
           0.000000 -12.753558   0.000000 xy xz yz

Masses

    1   112.411000000 # Cd3+2
    2    15.999400000 # O_R
    3    14.006700000 # N_R
    4    12.010700000 # C_R
    5     1.007940000 # H_

Bond Coeffs

    1      147.192711        2.045725  # O_R Cd3+2
    2      152.700732        2.089900  # Cd3+2 N_R
    3      646.680887        1.311940  # O_R C_R
    4      929.109299        1.322497  # N_R N_R
    5      663.718927        1.345073  # C_R N_R
    6      391.669513        1.458000  # C_R C_R
    7      462.655054        1.379256  # C_R C_R
    8      357.440381        1.081418  # H_ C_R

Angle Coeffs

    1                      fourier      125.648965        0.343737        0.374972        0.281246 # O_R Cd3+2 O_R
    2                      fourier      134.543809        0.343737        0.374972        0.281246 # O_R Cd3+2 N_R
    3              cosine/periodic       61.290718              -1               3 # Cd3+2 O_R C_R
    4              cosine/periodic      223.508960              -1               3 # N_R N_R N_R
    5              cosine/periodic       63.216952              -1               3 # N_R N_R Cd3+2
    6              cosine/periodic      163.738922              -1               3 # N_R N_R C_R
    7              cosine/periodic       46.796883              -1               3 # C_R N_R Cd3+2
    8              cosine/periodic      102.183280              -1               3 # C_R C_R C_R
    9              cosine/periodic      111.297508              -1               3 # C_R C_R C_R
   10              cosine/periodic      212.442573              -1               3 # N_R C_R N_R
   11              cosine/periodic      140.838129              -1               3 # N_R C_R C_R
   12              cosine/periodic       57.289016              -1               3 # C_R C_R H_
   13              cosine/periodic      131.755710              -1               3 # O_R C_R C_R
   14              cosine/periodic      187.136328              -1               3 # O_R C_R O_R
   15                      fourier      144.179329        0.343737        0.374972        0.281246 # N_R Cd3+2 N_R

Dihedral Coeffs

    1        6.737110              -1               2 # Cd3+2 O_R C_R O_R
    2        3.368555              -1               2 # N_R C_R N_R N_R
    3        1.250000              -1               2 # N_R C_R C_R C_R

Improper Coeffs

    1        2.000000        1.000000       -1.000000        0.000000               0 # N_R N_R N_R Cd3+2

Pair Coeffs

    1        0.228000        2.537280 # Cd3+2 Cd3+2
    2        0.060000        3.118146 # O_R O_R
    3        0.069000        3.260689 # N_R N_R
    4        0.105000        3.430851 # C_R C_R
    5        0.044000        2.571134 # H_ H_

Atoms

       1      444        1     0.00000   -2.14517    4.90723    7.26769
       2      444        2     0.00000   -1.05805    5.78616    5.48096
       3      444        2     0.00000    1.81809   11.49670    6.02671
       4      444        3     0.00000    7.10278   10.95754    4.33442
       5      444        3     0.00000    6.94513    9.69342    4.04094
       6      444        3     0.00000    8.38803   11.14914    4.69312
       7      444        2     0.00000    0.99763    6.54424    5.89314
       8      444        3     0.00000    8.10273    9.02291    4.20007
       9      444        4     0.00000   10.39708    9.69215    4.89269
      10      444        4     0.00000    8.97183    9.94364    4.59399
      11      444        4     0.00000   -0.67246    8.13077    5.37400
      12      444        4     0.00000   -0.23326   10.50993    5.31270
      13      444        4     0.00000   -2.01022    8.38226    5.07269
      14      444        5     0.00000   10.26561    7.66941    4.99052
      15      444        4     0.00000   -1.57498   10.74514    4.98791
      16      444        5     0.00000   -1.86650   11.61539    4.83399
      17      444        4     0.00000    0.69712   11.67147    5.45227
      18      444        4     0.00000   -0.21142    6.71232    5.59705
      19      444        4     0.00000    0.20578    9.20004    5.50705
      20      444        5     0.00000    1.09598    9.04082    5.72618
      21      444        2     0.00000    0.35211   12.80044    5.02874
      22      444        1     0.00000    7.47762   13.95348    0.74584
      23      444        2     0.00000    2.18796   14.83241   12.00281
      24      444        2     0.00000    5.06410    2.45045   12.54856
      25      444        3     0.00000   -2.52001    1.91129   10.85627
      26      444        3     0.00000   -2.67766    0.64717   10.56279
      27      444        3     0.00000   -1.23476    2.10289   11.21497
      28      444        2     0.00000    4.24364   15.59049   12.41499
      29      444        3     0.00000   -1.52006   18.06916   10.72192
      30      444        4     0.00000    0.77429    0.64590   11.41454
      31      444        4     0.00000   -0.65096    0.89739   11.11584
      32      444        4     0.00000    2.57355   17.17702   11.89585
      33      444        4     0.00000    3.01275    1.46368   11.83455
      34      444        4     0.00000    1.23579   17.42851   11.59454
      35      444        5     0.00000    0.64282   16.71566   11.51237
      36      444        4     0.00000    1.67103    1.69889   11.50976
      37      444        5     0.00000    1.37951    2.56914   11.35584
      38      444        4     0.00000    3.94313    2.62522   11.97411
      39      444        4     0.00000    3.03459   15.75857   12.11890
      40      444        4     0.00000    3.45179    0.15379   12.02890
      41      444        5     0.00000    4.34199   18.08707   12.24803
      42      444        2     0.00000    3.59812    3.75419   11.55059
      43      444        1     0.00000    5.44880    4.90723   12.29786
      44      444        2     0.00000   10.73846    5.78616    1.04089
      45      444        2     0.00000    7.86232   11.49670    0.49514
      46      444        3     0.00000    2.57763   10.95754    2.18743
      47      444        3     0.00000    2.73528    9.69342    2.48091
      48      444        3     0.00000    1.29238   11.14914    1.82873
      49      444        2     0.00000    8.68278    6.54424    0.62871
      50      444        3     0.00000    1.57768    9.02291    2.32178
      51      444        4     0.00000   -0.71667    9.69215    1.62916
      52      444        4     0.00000    0.70858    9.94364    1.92786
      53      444        4     0.00000   10.35287    8.13077    1.14785
      54      444        4     0.00000    9.91367   10.50993    1.20915
      55      444        4     0.00000   11.69063    8.38226    1.44915
      56      444        5     0.00000   -0.58520    7.66941    1.53133
      57      444        4     0.00000   11.25539   10.74514    1.53394
      58      444        5     0.00000   11.54691   11.61539    1.68785
      59      444        4     0.00000    8.98329   11.67147    1.06958
      60      444        4     0.00000    9.89183    6.71232    0.92480
      61      444        4     0.00000    9.47463    9.20004    1.01480
      62      444        5     0.00000    8.58443    9.04082    0.79567
      63      444        2     0.00000    9.32830   12.80044    1.49311
      64      444        1     0.00000    2.20279   13.95348    5.77601
      65      444        2     0.00000    1.11567   14.83241    7.56274
      66      444        2     0.00000   -1.76047    2.45045    7.01699
      67      444        3     0.00000    5.82364    1.91129    8.70928
      68      444        3     0.00000    5.98129    0.64717    9.00276
      69      444        3     0.00000    4.53840    2.10289    8.35058
      70      444        2     0.00000   -0.94001   15.59049    7.15056
      71      444        3     0.00000    4.82369   18.06916    8.84363
      72      444        4     0.00000    2.52934    0.64590    8.15101
      73      444        4     0.00000    3.95459    0.89739    8.44971
      74      444        4     0.00000    0.73008   17.17702    7.66969
      75      444        4     0.00000    0.29088    1.46368    7.73100
      76      444        4     0.00000    2.06784   17.42851    7.97100
      77      444        5     0.00000    2.66081   16.71566    8.05318
      78      444        4     0.00000    1.63260    1.69889    8.05579
      79      444        5     0.00000    1.92412    2.56914    8.20970
      80      444        4     0.00000   -0.63950    2.62522    7.59143
      81      444        4     0.00000    0.26904   15.75857    7.44665
      82      444        4     0.00000   -0.14816    0.15379    7.53665
      83      444        5     0.00000   -1.03836   18.08707    7.31751
      84      444        2     0.00000   -0.29449    3.75419    8.01496
      85      444        1     0.00000    8.63719   13.18527    5.77601
      86      444        2     0.00000    7.55007   12.30634    7.56274
      87      444        2     0.00000    4.67393    6.59580    7.01699
      88      444        3     0.00000   -0.61076    7.13496    8.70928
      89      444        3     0.00000   -0.45311    8.39908    9.00276
      90      444        3     0.00000   -1.89600    6.94336    8.35058
      91      444        2     0.00000    5.49439   11.54826    7.15056
      92      444        3     0.00000   -1.61071    9.06959    8.84363
      93      444        4     0.00000   -3.90506    8.40035    8.15101
      94      444        4     0.00000   -2.47981    8.14886    8.44971
      95      444        4     0.00000    7.16448    9.96173    7.66969
      96      444        4     0.00000    6.72528    7.58257    7.73100
      97      444        4     0.00000    8.50224    9.71024    7.97100
      98      444        5     0.00000   -3.77359   10.42309    8.05318
      99      444        4     0.00000    8.06700    7.34736    8.05579
     100      444        5     0.00000    8.35852    6.47712    8.20970
     101      444        4     0.00000    5.79490    6.42103    7.59143
     102      444        4     0.00000    6.70344   11.38018    7.44665
     103      444        4     0.00000    6.28624    8.89246    7.53665
     104      444        5     0.00000    5.39604    9.05168    7.31751
     105      444        2     0.00000    6.13991    5.29206    8.01496
     106      444        1     0.00000   -0.98560    4.13902   12.29786
     107      444        2     0.00000    4.30406    3.26009    1.04089
     108      444        2     0.00000    1.42792   15.64205    0.49514
     109      444        3     0.00000    9.01203   16.18121    2.18743
     110      444        3     0.00000    9.16968   17.44533    2.48091
     111      444        3     0.00000    7.72678   15.98961    1.82873
     112      444        2     0.00000    2.24838    2.50201    0.62871
     113      444        3     0.00000    8.01208    0.02334    2.32178
     114      444        4     0.00000    5.71773   17.44660    1.62916
     115      444        4     0.00000    7.14298   17.19511    1.92786
     116      444        4     0.00000    3.91847    0.91548    1.14785
     117      444        4     0.00000    3.47927   16.62882    1.20915
     118      444        4     0.00000    5.25623    0.66399    1.44915
     119      444        5     0.00000    5.84920    1.37684    1.53133
     120      444        4     0.00000    4.82099   16.39361    1.53394
     121      444        5     0.00000    5.11251   15.52337    1.68785
     122      444        4     0.00000    2.54889   15.46728    1.06958
     123      444        4     0.00000    3.45743    2.33393    0.92480
     124      444        4     0.00000    3.04023   17.93871    1.01480
     125      444        5     0.00000    2.15003    0.00543    0.79567
     126      444        2     0.00000    2.89390   14.33831    1.49311
     127      444        1     0.00000    1.04322   13.18527    0.74584
     128      444        2     0.00000   -4.24644   12.30634   12.00281
     129      444        2     0.00000   -1.37030    6.59580   12.54856
     130      444        3     0.00000    3.91439    7.13496   10.85627
     131      444        3     0.00000    3.75674    8.39908   10.56279
     132      444        3     0.00000    5.19964    6.94336   11.21497
     133      444        2     0.00000   -2.19076   11.54826   12.41499
     134      444        3     0.00000    4.91434    9.06959   10.72192
     135      444        4     0.00000    7.20869    8.40035   11.41454
     136      444        4     0.00000    5.78344    8.14886   11.11584
     137      444        4     0.00000   -3.86085    9.96173   11.89585
     138      444        4     0.00000   -3.42165    7.58257   11.83455
     139      444        4     0.00000   -5.19861    9.71024   11.59454
     140      444        5     0.00000    7.07722   10.42309   11.51237
     141      444        4     0.00000   -4.76337    7.34736   11.50976
     142      444        5     0.00000   -5.05489    6.47712   11.35584
     143      444        4     0.00000   -2.49127    6.42103   11.97411
     144      444        4     0.00000   -3.39981   11.38018   12.11890
     145      444        4     0.00000   -2.98261    8.89246   12.02890
     146      444        5     0.00000   -2.09241    9.05168   12.24803
     147      444        2     0.00000   -2.83628    5.29206   11.55059
     148      444        1     0.00000    4.28923    4.13902    7.26769
     149      444        2     0.00000    5.37635    3.26009    5.48096
     150      444        2     0.00000    8.25249   15.64205    6.02671
     151      444        3     0.00000    0.66838   16.18121    4.33442
     152      444        3     0.00000    0.51073   17.44533    4.04094
     153      444        3     0.00000    1.95363   15.98961    4.69312
     154      444        2     0.00000    7.43203    2.50201    5.89314
     155      444        3     0.00000    1.66833    0.02334    4.20007
     156      444        4     0.00000    3.96268   17.44660    4.89269
     157      444        4     0.00000    2.53743   17.19511    4.59399
     158      444        4     0.00000    5.76194    0.91548    5.37400
     159      444        4     0.00000    6.20114   16.62882    5.31270
     160      444        4     0.00000    4.42418    0.66399    5.07269
     161      444        5     0.00000    3.83121    1.37684    4.99052
     162      444        4     0.00000    4.85942   16.39361    4.98791
     163      444        5     0.00000    4.56790   15.52337    4.83399
     164      444        4     0.00000    7.13152   15.46728    5.45227
     165      444        4     0.00000    6.22298    2.33393    5.59705
     166      444        4     0.00000    6.64018   17.93871    5.50705
     167      444        5     0.00000    7.53038    0.00543    5.72618
     168      444        2     0.00000    6.78651   14.33831    5.02874
     169      444        1     0.00000    4.84021    9.10559    3.26092
     170      444        1     0.00000   -4.78258    0.05934    9.78277
     171      444        1     0.00000    1.65182    8.98691    9.78277
     172      444        1     0.00000   -1.59419   18.03316    3.26092
     173      444        1     0.00000   -8.52195    4.90723   20.31139
     174      444        2     0.00000   -7.43483    5.78616   18.52466
     175      444        2     0.00000   -4.55869   11.49670   19.07041
     176      444        3     0.00000    0.72600   10.95754   17.37812
     177      444        3     0.00000    0.56835    9.69342   17.08464
     178      444        3     0.00000    2.01125   11.14914   17.73682
     179      444        2     0.00000   -5.37915    6.54424   18.93684
     180      444        3     0.00000    1.72595    9.02291   17.24377
     181      444        4     0.00000    4.02030    9.69215   17.93639
     182      444        4     0.00000    2.59505    9.94364   17.63769
     183      444        4     0.00000   -7.04924    8.13077   18.41770
     184      444        4     0.00000   -6.61004   10.50993   18.35640
     185      444        4     0.00000   -8.38700    8.38226   18.11639
     186      444        5     0.00000    3.88883    7.66941   18.03422
     187      444        4     0.00000   -7.95176   10.74514   18.03161
     188      444        5     0.00000   -8.24328   11.61539   17.87769
     189      444        4     0.00000   -5.67966   11.67147   18.49596
     190      444        4     0.00000   -6.58820    6.71232   18.64075
     191      444        4     0.00000   -6.17100    9.20004   18.55075
     192      444        5     0.00000   -5.28080    9.04082   18.76988
     193      444        2     0.00000   -6.02467   12.80044   18.07243
     194      444        1     0.00000    1.10084   13.95348   13.78954
     195      444        2     0.00000   -4.18882   14.83241   25.04651
     196      444        2     0.00000   -1.31268    2.45045   25.59226
     197      444        3     0.00000   -8.89679    1.91129   23.89997
     198      444        3     0.00000   -9.05444    0.64717   23.60648
     199      444        3     0.00000   -7.61154    2.10289   24.25867
     200      444        2     0.00000   -2.13314   15.59049   25.45869
     201      444        3     0.00000   -7.89683   18.06916   23.76562
     202      444        4     0.00000   -5.60249    0.64590   24.45824
     203      444        4     0.00000   -7.02774    0.89739   24.15954
     204      444        4     0.00000   -3.80323   17.17702   24.93955
     205      444        4     0.00000   -3.36403    1.46368   24.87824
     206      444        4     0.00000   -5.14099   17.42851   24.63824
     207      444        5     0.00000   -5.73396   16.71566   24.55607
     208      444        4     0.00000   -4.70575    1.69889   24.55346
     209      444        5     0.00000   -4.99727    2.56914   24.39954
     210      444        4     0.00000   -2.43364    2.62522   25.01781
     211      444        4     0.00000   -3.34219   15.75857   25.16260
     212      444        4     0.00000   -2.92499    0.15379   25.07260
     213      444        5     0.00000   -2.03479   18.08707   25.29173
     214      444        2     0.00000   -2.77866    3.75419   24.59428
     215      444        1     0.00000   -0.92798    4.90723   25.34156
     216      444        2     0.00000    4.36169    5.78616   14.08458
     217      444        2     0.00000    1.48554   11.49670   13.53884
     218      444        3     0.00000   -3.79915   10.95754   15.23113
     219      444        3     0.00000   -3.64149    9.69342   15.52461
     220      444        3     0.00000   -5.08439   11.14914   14.87242
     221      444        2     0.00000    2.30600    6.54424   13.67240
     222      444        3     0.00000   -4.79910    9.02291   15.36548
     223      444        4     0.00000   -7.09345    9.69215   14.67286
     224      444        4     0.00000   -5.66820    9.94364   14.97156
     225      444        4     0.00000    3.97609    8.13077   14.19154
     226      444        4     0.00000    3.53689   10.50993   14.25285
     227      444        4     0.00000    5.31385    8.38226   14.49285
     228      444        5     0.00000   -6.96198    7.66941   14.57503
     229      444        4     0.00000    4.87862   10.74514   14.57764
     230      444        5     0.00000    5.17013   11.61539   14.73155
     231      444        4     0.00000    2.60651   11.67147   14.11328
     232      444        4     0.00000    3.51505    6.71232   13.96850
     233      444        4     0.00000    3.09785    9.20004   14.05850
     234      444        5     0.00000    2.20765    9.04082   13.83936
     235      444        2     0.00000    2.95153   12.80044   14.53681
     236      444        1     0.00000   -4.17399   13.95348   18.81971
     237      444        2     0.00000   -5.26110   14.83241   20.60643
     238      444        2     0.00000   -8.13725    2.45045   20.06069
     239      444        3     0.00000   -0.55314    1.91129   21.75297
     240      444        3     0.00000   -0.39548    0.64717   22.04646
     241      444        3     0.00000   -1.83838    2.10289   21.39427
     242      444        2     0.00000   -7.31679   15.59049   20.19425
     243      444        3     0.00000   -1.55309   18.06916   21.88732
     244      444        4     0.00000   -3.84744    0.64590   21.19470
     245      444        4     0.00000   -2.42219    0.89739   21.49341
     246      444        4     0.00000   -5.64670   17.17702   20.71339
     247      444        4     0.00000   -6.08589    1.46368   20.77470
     248      444        4     0.00000   -4.30894   17.42851   21.01470
     249      444        5     0.00000   -3.71597   16.71566   21.09688
     250      444        4     0.00000   -4.74417    1.69889   21.09949
     251      444        5     0.00000   -4.45266    2.56914   21.25340
     252      444        4     0.00000   -7.01628    2.62522   20.63513
     253      444        4     0.00000   -6.10774   15.75857   20.49034
     254      444        4     0.00000   -6.52494    0.15379   20.58035
     255      444        5     0.00000   -7.41514   18.08707   20.36121
     256      444        2     0.00000   -6.67126    3.75419   21.05866
     257      444        1     0.00000    2.26041   13.18527   18.81971
     258      444        2     0.00000    1.17330   12.30634   20.60643
     259      444        2     0.00000   -1.70285    6.59580   20.06069
     260      444        3     0.00000   -6.98754    7.13496   21.75297
     261      444        3     0.00000   -6.82988    8.39908   22.04646
     262      444        3     0.00000   -8.27278    6.94336   21.39427
     263      444        2     0.00000   -0.88239   11.54826   20.19425
     264      444        3     0.00000   -7.98749    9.06959   21.88732
     265      444        4     0.00000  -10.28184    8.40035   21.19470
     266      444        4     0.00000   -8.85659    8.14886   21.49341
     267      444        4     0.00000    0.78770    9.96173   20.71339
     268      444        4     0.00000    0.34851    7.58257   20.77470
     269      444        4     0.00000    2.12546    9.71024   21.01470
     270      444        5     0.00000  -10.15037   10.42309   21.09688
     271      444        4     0.00000    1.69023    7.34736   21.09949
     272      444        5     0.00000    1.98174    6.47712   21.25340
     273      444        4     0.00000   -0.58188    6.42103   20.63513
     274      444        4     0.00000    0.32666   11.38018   20.49034
     275      444        4     0.00000   -0.09054    8.89246   20.58035
     276      444        5     0.00000   -0.98074    9.05168   20.36121
     277      444        2     0.00000   -0.23686    5.29206   21.05866
     278      444        1     0.00000   -7.36238    4.13902   25.34156
     279      444        2     0.00000   -2.07271    3.26009   14.08458
     280      444        2     0.00000   -4.94886   15.64205   13.53884
     281      444        3     0.00000    2.63525   16.18121   15.23113
     282      444        3     0.00000    2.79291   17.44533   15.52461
     283      444        3     0.00000    1.35001   15.98961   14.87242
     284      444        2     0.00000   -4.12840    2.50201   13.67240
     285      444        3     0.00000    1.63530    0.02334   15.36548
     286      444        4     0.00000   -0.65905   17.44660   14.67286
     287      444        4     0.00000    0.76620   17.19511   14.97156
     288      444        4     0.00000   -2.45831    0.91548   14.19154
     289      444        4     0.00000   -2.89751   16.62882   14.25285
     290      444        4     0.00000   -1.12055    0.66399   14.49285
     291      444        5     0.00000   -0.52758    1.37684   14.57503
     292      444        4     0.00000   -1.55578   16.39361   14.57764
     293      444        5     0.00000   -1.26427   15.52337   14.73155
     294      444        4     0.00000   -3.82789   15.46728   14.11328
     295      444        4     0.00000   -2.91935    2.33393   13.96850
     296      444        4     0.00000   -3.33655   17.93871   14.05850
     297      444        5     0.00000   -4.22675    0.00543   13.83936
     298      444        2     0.00000   -3.48287   14.33831   14.53681
     299      444        1     0.00000   -5.33356   13.18527   13.78954
     300      444        2     0.00000  -10.62322   12.30634   25.04651
     301      444        2     0.00000   -7.74708    6.59580   25.59226
     302      444        3     0.00000   -2.46239    7.13496   23.89997
     303      444        3     0.00000   -2.62004    8.39908   23.60648
     304      444        3     0.00000   -1.17714    6.94336   24.25867
     305      444        2     0.00000   -8.56754   11.54826   25.45869
     306      444        3     0.00000   -1.46243    9.06959   23.76562
     307      444        4     0.00000    0.83191    8.40035   24.45824
     308      444        4     0.00000   -0.59334    8.14886   24.15954
     309      444        4     0.00000  -10.23763    9.96173   24.93955
     310      444        4     0.00000   -9.79843    7.58257   24.87824
     311      444        4     0.00000  -11.57539    9.71024   24.63824
     312      444        5     0.00000    0.70044   10.42309   24.55607
     313      444        4     0.00000  -11.14015    7.34736   24.55346
     314      444        5     0.00000  -11.43167    6.47712   24.39954
     315      444        4     0.00000   -8.86804    6.42103   25.01781
     316      444        4     0.00000   -9.77659   11.38018   25.16260
     317      444        4     0.00000   -9.35939    8.89246   25.07260
     318      444        5     0.00000   -8.46919    9.05168   25.29173
     319      444        2     0.00000   -9.21306    5.29206   24.59428
     320      444        1     0.00000   -2.08755    4.13902   20.31139
     321      444        2     0.00000   -1.00043    3.26009   18.52466
     322      444        2     0.00000    1.87571   15.64205   19.07041
     323      444        3     0.00000   -5.70840   16.18121   17.37812
     324      444        3     0.00000   -5.86605   17.44533   17.08464
     325      444        3     0.00000   -4.42315   15.98961   17.73682
     326      444        2     0.00000    1.05525    2.50201   18.93684
     327      444        3     0.00000   -4.70845    0.02334   17.24377
     328      444        4     0.00000   -2.41410   17.44660   17.93639
     329      444        4     0.00000   -3.83935   17.19511   17.63769
     330      444        4     0.00000   -0.61484    0.91548   18.41770
     331      444        4     0.00000   -0.17564   16.62882   18.35640
     332      444        4     0.00000   -1.95260    0.66399   18.11639
     333      444        5     0.00000   -2.54557    1.37684   18.03422
     334      444        4     0.00000   -1.51736   16.39361   18.03161
     335      444        5     0.00000   -1.80888   15.52337   17.87769
     336      444        4     0.00000    0.75474   15.46728   18.49596
     337      444        4     0.00000   -0.15380    2.33393   18.64075
     338      444        4     0.00000    0.26340   17.93871   18.55075
     339      444        5     0.00000    1.15360    0.00543   18.76988
     340      444        2     0.00000    0.40973   14.33831   18.07243
     341      444        1     0.00000   -1.53657    9.10559   16.30462
     342      444        1     0.00000  -11.15936    0.05934   22.82647
     343      444        1     0.00000   -4.72496    8.98691   22.82647
     344      444        1     0.00000   -7.97097   18.03316   16.30462
     345      444        1     0.00000   -2.14517   22.99973    7.26769
     346      444        2     0.00000   -1.05805   23.87866    5.48096
     347      444        2     0.00000    1.81809   29.58920    6.02671
     348      444        3     0.00000    7.10278   29.05004    4.33442
     349      444        3     0.00000    6.94513   27.78592    4.04094
     350      444        3     0.00000    8.38803   29.24164    4.69312
     351      444        2     0.00000    0.99763   24.63674    5.89314
     352      444        3     0.00000    8.10273   27.11541    4.20007
     353      444        4     0.00000   10.39708   27.78465    4.89269
     354      444        4     0.00000    8.97183   28.03614    4.59399
     355      444        4     0.00000   -0.67246   26.22327    5.37400
     356      444        4     0.00000   -0.23326   28.60243    5.31270
     357      444        4     0.00000   -2.01022   26.47476    5.07269
     358      444        5     0.00000   10.26561   25.76191    4.99052
     359      444        4     0.00000   -1.57498   28.83764    4.98791
     360      444        5     0.00000   -1.86650   29.70789    4.83399
     361      444        4     0.00000    0.69712   29.76397    5.45227
     362      444        4     0.00000   -0.21142   24.80482    5.59705
     363      444        4     0.00000    0.20578   27.29254    5.50705
     364      444        5     0.00000    1.09598   27.13332    5.72618
     365      444        2     0.00000    0.35211   30.89294    5.02874
     366      444        1     0.00000    7.47762   32.04598    0.74584
     367      444        2     0.00000    2.18796   32.92491   12.00281
     368      444        2     0.00000    5.06410   20.54295   12.54856
     369      444        3     0.00000   -2.52001   20.00379   10.85627
     370      444        3     0.00000   -2.67766   18.73967   10.56279
     371      444        3     0.00000   -1.23476   20.19539   11.21497
     372      444        2     0.00000    4.24364   33.68299   12.41499