Created on Tue Aug 22 17:20:44 2023 

        1520 atoms
        1840 bonds
        3264 angles
        4416 dihedrals
        2592 impropers

           5 atom types
           6 bond types
           9 angle types
           3 dihedral types
           1 improper types
           0.000000  48.622000 xlo xhi
           0.000000  42.107887 ylo yhi
           0.000000  39.699697 zlo zhi
          24.311000  24.311000  14.035962 xy xz yz

Masses

    1    65.380000000 # Zn3+2
    2     1.007940000 # H_
    3    12.010700000 # C_R
    4    15.999400000 # O_2
    5    15.999400000 # O_R

Bond Coeffs

    1      172.603617        1.795426  # Zn3+2 O_2
    2      160.291409        1.840266  # Zn3+2 O_R
    3      357.440381        1.081418  # H_ C_R
    4      462.655054        1.379256  # C_R C_R
    5      391.669513        1.458000  # C_R C_R
    6      646.680887        1.311940  # C_R O_R

Angle Coeffs

    1                      fourier      179.021796        0.343737        0.374972        0.281246 # O_2 Zn3+2 O_R
    2                      fourier      172.607259        0.343737        0.374972        0.281246 # O_R Zn3+2 O_R
    3              cosine/periodic       57.289016              -1               3 # H_ C_R C_R
    4              cosine/periodic      111.297508              -1               3 # C_R C_R C_R
    5              cosine/periodic      102.183280              -1               3 # C_R C_R C_R
    6              cosine/periodic      131.755710              -1               3 # C_R C_R O_R
    7              cosine/periodic      187.136328              -1               3 # O_R C_R O_R
    8              cosine/periodic       23.613368              -1               3 # Zn3+2 O_2 Zn3+2
    9              cosine/periodic       60.877639              -1               3 # Zn3+2 O_R C_R

Dihedral Coeffs

    1        3.368555              -1               2 # H_ C_R C_R C_R
    2        1.250000              -1               2 # C_R C_R C_R O_R
    3        6.737110              -1               2 # C_R C_R O_R Zn3+2

Improper Coeffs

    1        2.000000        1.000000       -1.000000        0.000000               0 # H_ C_R C_R C_R

Pair Coeffs

    1        0.124000        2.461553 # Zn3+2 Zn3+2
    2        0.044000        2.571134 # H_ H_
    3        0.105000        3.430851 # C_R C_R
    4        0.060000        3.118146 # O_2 O_2
    5        0.060000        3.118146 # O_R O_R

Atoms

       1      444        1     0.00000   12.15550    8.85669    4.31238
       2      444        1     0.00000   13.74787    6.09863    4.31238
       3      444        1     0.00000   10.56313    6.09863    4.31238
       4      444        1     0.00000   12.15550    7.01798    6.91271
       5      444        1     0.00000   34.87413   21.97330   15.53747
       6      444        1     0.00000   36.46650   19.21523   15.53747
       7      444        1     0.00000   38.05887   21.97330   15.53747
       8      444        1     0.00000   36.46650   21.05394   12.93714
       9      444        2     0.00000   16.90101    7.43345    1.90956
      10      444        2     0.00000   18.98689    7.36327    0.65703
      11      444        2     0.00000   14.88806   10.91998    1.90956
      12      444        2     0.00000   15.87022   12.76150    0.65703
      13      444        2     0.00000    9.42294    5.44034    9.65894
      14      444        2     0.00000    8.44078    4.87329   11.81264
      15      444        2     0.00000    7.40999    4.27816    6.37180
      16      444        2     0.00000    5.32411    3.07388    6.72314
      17      444        2     0.00000   14.16845    2.70052    1.90956
      18      444        2     0.00000   15.27217    0.92918    0.65703
      19      444        2     0.00000   10.14255    2.70052    1.90956
      20      444        2     0.00000    9.03883    0.92918    0.65703
      21      444        2     0.00000   12.15550   12.49762    6.37180
      22      444        2     0.00000   12.15550   14.90619    6.72314
      23      444        2     0.00000   12.15550   10.17327    9.65894
      24      444        2     0.00000   12.15550   11.30737   11.81264
      25      444        2     0.00000   16.90101    4.27816    6.37180
      26      444        2     0.00000   18.98689    3.07388    6.72314
      27      444        2     0.00000   14.88806    5.44034    9.65894
      28      444        2     0.00000   15.87022    4.87329   11.81264
      29      444        2     0.00000    7.40999    7.43345    1.90956
      30      444        2     0.00000    5.32411    7.36327    0.65703
      31      444        2     0.00000    9.42294   10.91998    1.90956
      32      444        2     0.00000    8.44078   12.76150    0.65703
      33      444        2     0.00000   33.73394   17.15195   17.94029
      34      444        2     0.00000   32.75178   15.31043   19.19282
      35      444        2     0.00000   31.72099   20.63848   17.94029
      36      444        2     0.00000   29.63511   20.70866   19.19282
      37      444        2     0.00000   39.19906   22.63159   10.19091
      38      444        2     0.00000   40.18122   23.19864    8.03720
      39      444        2     0.00000   41.21201   23.79376   13.47805
      40      444        2     0.00000   43.29789   24.99805   13.12670
      41      444        2     0.00000   39.19906   17.15195   17.94029
      42      444        2     0.00000   40.18122   15.31043   19.19282
      43      444        2     0.00000   41.21201   20.63848   17.94029
      44      444        2     0.00000   43.29789   20.70866   19.19282
      45      444        2     0.00000   31.72099   23.79376   13.47805
      46      444        2     0.00000   29.63511   24.99805   13.12670
      47      444        2     0.00000   33.73394   22.63159   10.19091
      48      444        2     0.00000   32.75178   23.19864    8.03720
      49      444        2     0.00000   36.46650   15.57430   13.47805
      50      444        2     0.00000   36.46650   13.16573   13.12670
      51      444        2     0.00000   36.46650   17.89866   10.19091
      52      444        2     0.00000   36.46650   16.76455    8.03720
      53      444        2     0.00000   38.47945   25.37141   17.94029
      54      444        2     0.00000   39.58317   27.14274   19.19282
      55      444        2     0.00000   34.45355   25.37141   17.94029
      56      444        2     0.00000   33.34983   27.14274   19.19282
      57      444        3     0.00000   16.79890    8.32333    1.65746
      58      444        3     0.00000   17.75919    8.94512    0.84957
      59      444        3     0.00000   18.88722    8.25455    0.40295
      60      444        3     0.00000   15.60766   10.38661    1.65746
      61      444        3     0.00000   16.62629   10.90735    0.84957
      62      444        3     0.00000   16.59226   12.22953    0.40295
      63      444        3     0.00000    8.70334    5.02487    9.24010
      64      444        3     0.00000    7.68471    4.43677   10.00035
      65      444        3     0.00000    7.71874    4.45642   11.39580
      66      444        3     0.00000    7.51210    4.33711    7.29482
      67      444        3     0.00000    6.55181    3.78269    8.15035
      68      444        3     0.00000    5.42378    3.13142    7.64815
      69      444        3     0.00000   13.34674    2.34401    1.65746
      70      444        3     0.00000   13.28839    1.20148    0.84957
      71      444        3     0.00000   14.45046    0.56986    0.40295
      72      444        3     0.00000   10.96426    2.34401    1.65746
      73      444        3     0.00000   11.02261    1.20148    0.84957
      74      444        3     0.00000    9.86054    0.56986    0.40295
      75      444        3     0.00000   12.15550   12.37972    7.29482
      76      444        3     0.00000   12.15550   13.48856    8.15035
      77      444        3     0.00000   12.15550   14.79110    7.64815
      78      444        3     0.00000   12.15550   11.00419    9.24010
      79      444        3     0.00000   12.15550   12.18041   10.00035
      80      444        3     0.00000   12.15550   12.14111   11.39580
      81      444        3     0.00000   16.79890    4.33711    7.29482
      82      444        3     0.00000   17.75919    3.78269    8.15035
      83      444        3     0.00000   18.88722    3.13142    7.64815
      84      444        3     0.00000   15.60766    5.02487    9.24010
      85      444        3     0.00000   16.62629    4.43677   10.00035
      86      444        3     0.00000   16.59226    4.45642   11.39580
      87      444        3     0.00000    7.51210    8.32333    1.65746
      88      444        3     0.00000    6.55181    8.94512    0.84957
      89      444        3     0.00000    5.42378    8.25455    0.40295
      90      444        3     0.00000    8.70334   10.38661    1.65746
      91      444        3     0.00000    7.68471   10.90735    0.84957
      92      444        3     0.00000    7.71874   12.22953    0.40295
      93      444        3     0.00000   33.01434   17.68531   18.19239
      94      444        3     0.00000   31.99571   17.16458   19.00027
      95      444        3     0.00000   32.02974   15.84239   19.44690
      96      444        3     0.00000   31.82310   19.74860   18.19239
      97      444        3     0.00000   30.86281   19.12681   19.00027
      98      444        3     0.00000   29.73478   19.81738   19.44690
      99      444        3     0.00000   39.91866   23.04705   10.60974
     100      444        3     0.00000   40.93729   23.63516    9.84949
     101      444        3     0.00000   40.90326   23.61551    8.45405
     102      444        3     0.00000   41.10990   23.73481   12.55503
     103      444        3     0.00000   42.07019   24.28923   11.69950
     104      444        3     0.00000   43.19822   24.94050   12.20170
     105      444        3     0.00000   39.91866   17.68531   18.19239
     106      444        3     0.00000   40.93729   17.16458   19.00027
     107      444        3     0.00000   40.90326   15.84239   19.44690
     108      444        3     0.00000   41.10990   19.74860   18.19239
     109      444        3     0.00000   42.07019   19.12681   19.00027
     110      444        3     0.00000   43.19822   19.81738   19.44690
     111      444        3     0.00000   31.82310   23.73481   12.55503
     112      444        3     0.00000   30.86281   24.28923   11.69950
     113      444        3     0.00000   29.73478   24.94050   12.20170
     114      444        3     0.00000   33.01434   23.04705   10.60974
     115      444        3     0.00000   31.99571   23.63516    9.84949
     116      444        3     0.00000   32.02974   23.61551    8.45405
     117      444        3     0.00000   36.46650   15.69221   12.55503
     118      444        3     0.00000   36.46650   14.58336   11.69950
     119      444        3     0.00000   36.46650   13.28083   12.20170
     120      444        3     0.00000   36.46650   17.06773   10.60974
     121      444        3     0.00000   36.46650   15.89152    9.84949
     122      444        3     0.00000   36.46650   15.93082    8.45405
     123      444        3     0.00000   37.65774   25.72792   18.19239
     124      444        3     0.00000   37.59939   26.87045   19.00027
     125      444        3     0.00000   38.76146   27.50206   19.44690
     126      444        3     0.00000   35.27526   25.72792   18.19239
     127      444        3     0.00000   35.33361   26.87045   19.00027
     128      444        3     0.00000   34.17154   27.50206   19.44690
     129      444        3     0.00000   15.68546    9.05600    2.08026
     130      444        3     0.00000   14.73976    8.51000    2.85242
     131      444        3     0.00000   17.76648   10.25748    0.38112
     132      444        3     0.00000    8.62554    4.97996    7.84466
     133      444        3     0.00000    9.57124    5.52596    7.07250
     134      444        3     0.00000    6.54452    3.77848    9.54381
     135      444        3     0.00000   12.15550    2.94194    2.08026
     136      444        3     0.00000   12.15550    4.03394    2.85242
     137      444        3     0.00000   12.15550    0.53898    0.38112
     138      444        3     0.00000   12.15550   11.09402    7.84466
     139      444        3     0.00000   12.15550   10.00203    7.07250
     140      444        3     0.00000   12.15550   13.49698    9.54381
     141      444        3     0.00000   15.68546    4.97996    7.84466
     142      444        3     0.00000   14.73976    5.52596    7.07250
     143      444        3     0.00000   17.76648    3.77848    9.54381
     144      444        3     0.00000    8.62554    9.05600    2.08026
     145      444        3     0.00000    9.57124    8.51000    2.85242
     146      444        3     0.00000    6.54452   10.25748    0.38112
     147      444        3     0.00000   32.93654   19.01592   17.76958
     148      444        3     0.00000   33.88224   19.56192   16.99743
     149      444        3     0.00000   30.85552   17.81444   19.46873
     150      444        3     0.00000   39.99646   23.09197   12.00519
     151      444        3     0.00000   39.05076   22.54597   12.77735
     152      444        3     0.00000   42.07748   24.29344   10.30604
     153      444        3     0.00000   39.99646   19.01592   17.76958
     154      444        3     0.00000   39.05076   19.56192   16.99743
     155      444        3     0.00000   42.07748   17.81444   19.46873
     156      444        3     0.00000   32.93654   23.09197   12.00519
     157      444        3     0.00000   33.88224   22.54597   12.77735
     158      444        3     0.00000   30.85552   24.29344   10.30604
     159      444        3     0.00000   36.46650   16.97790   12.00519
     160      444        3     0.00000   36.46650   18.06990   12.77735
     161      444        3     0.00000   36.46650   14.57494   10.30604
     162      444        3     0.00000   36.46650   25.12999   17.76958
     163      444        3     0.00000   36.46650   24.03799   16.99743
     164      444        3     0.00000   36.46650   27.53294   19.46873
     165      444        4     0.00000   12.15550    7.01798    4.96246
     166      444        4     0.00000   36.46650   21.05394   14.88739
     167      444        5     0.00000   13.76489    9.21040    3.20178
     168      444        5     0.00000   14.85888    7.31554    3.20178
     169      444        5     0.00000    9.45212    5.45718    5.82990
     170      444        5     0.00000   10.54611    6.08880    7.61639
     171      444        5     0.00000   11.06151    4.52800    3.20178
     172      444        5     0.00000   13.24949    4.52800    3.20178
     173      444        5     0.00000   12.15550    8.87634    7.61639
     174      444        5     0.00000   12.15550   10.13958    5.82990
     175      444        5     0.00000   13.76489    6.08880    7.61639
     176      444        5     0.00000   14.85888    5.45718    5.82990
     177      444        5     0.00000   10.54611    9.21040    3.20178
     178      444        5     0.00000    9.45212    7.31554    3.20178
     179      444        5     0.00000   33.76312   20.75638   16.64807
     180      444        5     0.00000   34.85711   18.86153   16.64807
     181      444        5     0.00000   39.16988   22.61474   14.01995
     182      444        5     0.00000   38.07589   21.98312   12.23346
     183      444        5     0.00000   39.16988   20.75638   16.64807
     184      444        5     0.00000   38.07589   18.86153   16.64807
     185      444        5     0.00000   34.85711   21.98312   12.23346
     186      444        5     0.00000   33.76312   22.61474   14.01995
     187      444        5     0.00000   36.46650   19.19558   12.23346
     188      444        5     0.00000   36.46650   17.93235   14.01995
     189      444        5     0.00000   35.37251   23.54392   16.64807
     190      444        5     0.00000   37.56050   23.54392   16.64807
     191      444        1     0.00000   24.31100   15.87467   24.16223
     192      444        1     0.00000   25.90337   13.11661   24.16223
     193      444        1     0.00000   22.71863   13.11661   24.16223
     194      444        1     0.00000   24.31100   14.03596   26.76256
     195      444        1     0.00000   47.02963   28.99128   35.38732
     196      444        1     0.00000   48.62200   26.23321   35.38732
     197      444        1     0.00000   50.21437   28.99128   35.38732
     198      444        1     0.00000   48.62200   28.07192   32.78699
     199      444        2     0.00000   29.05651   14.45143   21.75940
     200      444        2     0.00000   31.14239   14.38125   20.50688
     201      444        2     0.00000   27.04356   17.93796   21.75940
     202      444        2     0.00000   28.02572   19.77948   20.50688
     203      444        2     0.00000   21.57844   12.45832   29.50878
     204      444        2     0.00000   20.59628   11.89127   31.66249
     205      444        2     0.00000   19.56549   11.29614   26.22165
     206      444        2     0.00000   17.47961   10.09186   26.57299
     207      444        2     0.00000   26.32395    9.71850   21.75940
     208      444        2     0.00000   27.42767    7.94716   20.50688
     209      444        2     0.00000   22.29805    9.71850   21.75940
     210      444        2     0.00000   21.19433    7.94716   20.50688
     211      444        2     0.00000   24.31100   19.51560   26.22165
     212      444        2     0.00000   24.31100   21.92417   26.57299
     213      444        2     0.00000   24.31100   17.19125   29.50878
     214      444        2     0.00000   24.31100   18.32535   31.66249
     215      444        2     0.00000   29.05651   11.29614   26.22165
     216      444        2     0.00000   31.14239   10.09186   26.57299
     217      444        2     0.00000   27.04356   12.45832   29.50878
     218      444        2     0.00000   28.02572   11.89127   31.66249
     219      444        2     0.00000   19.56549   14.45143   21.75940
     220      444        2     0.00000   17.47961   14.38125   20.50688
     221      444        2     0.00000   21.57844   17.93796   21.75940
     222      444        2     0.00000   20.59628   19.77948   20.50688
     223      444        2     0.00000   45.88944   24.16993   37.79014
     224      444        2     0.00000   44.90728   22.32841   39.04267
     225      444        2     0.00000   43.87649   27.65646   37.79014
     226      444        2     0.00000   41.79061   27.72664   39.04267
     227      444        2     0.00000   51.35456   29.64957   30.04076
     228      444        2     0.00000   52.33672   30.21662   27.88705
     229      444        2     0.00000   53.36751   30.81174   33.32790
     230      444        2     0.00000   55.45339   32.01603   32.97655
     231      444        2     0.00000   51.35456   24.16993   37.79014
     232      444        2     0.00000   52.33672   22.32841   39.04267
     233      444        2     0.00000   53.36751   27.65646   37.79014
     234      444        2     0.00000   55.45339   27.72664   39.04267
     235      444        2     0.00000   43.87649   30.81174   33.32790
     236      444        2     0.00000   41.79061   32.01603   32.97655
     237      444        2     0.00000   45.88944   29.64957   30.04076
     238      444        2     0.00000   44.90728   30.21662   27.88705
     239      444        2     0.00000   48.62200   22.59229   33.32790
     240      444        2     0.00000   48.62200   20.18371   32.97655
     241      444        2     0.00000   48.62200   24.91664   30.04076
     242      444        2     0.00000   48.62200   23.78253   27.88705
     243      444        2     0.00000   50.63495   32.38939   37.79014
     244      444        2     0.00000   51.73867   34.16073   39.04267
     245      444        2     0.00000   46.60905   32.38939   37.79014
     246      444        2     0.00000   45.50533   34.16073   39.04267
     247      444        3     0.00000   28.95440   15.34131   21.50731
     248      444        3     0.00000   29.91469   15.96310   20.69942
     249      444        3     0.00000   31.04272   15.27253   20.25280
     250      444        3     0.00000   27.76316   17.40459   21.50731
     251      444        3     0.00000   28.78179   17.92533   20.69942
     252      444        3     0.00000   28.74776   19.24752   20.25280
     253      444        3     0.00000   20.85884   12.04286   29.08995
     254      444        3     0.00000   19.84021   11.45475   29.85020
     255      444        3     0.00000   19.87424   11.47440   31.24565
     256      444        3     0.00000   19.66760   11.35509   27.14467
     257      444        3     0.00000   18.70731   10.80067   28.00020
     258      444        3     0.00000   17.57928   10.14940   27.49799
     259      444        3     0.00000   25.50224    9.36199   21.50731
     260      444        3     0.00000   25.44389    8.21946   20.69942
     261      444        3     0.00000   26.60596    7.58784   20.25280
     262      444        3     0.00000   23.11976    9.36199   21.50731
     263      444        3     0.00000   23.17811    8.21946   20.69942
     264      444        3     0.00000   22.01604    7.58784   20.25280
     265      444        3     0.00000   24.31100   19.39770   27.14467
     266      444        3     0.00000   24.31100   20.50654   28.00020
     267      444        3     0.00000   24.31100   21.80908   27.49799
     268      444        3     0.00000   24.31100   18.02218   29.08995
     269      444        3     0.00000   24.31100   19.19839   29.85020
     270      444        3     0.00000   24.31100   19.15909   31.24565
     271      444        3     0.00000   28.95440   11.35509   27.14467
     272      444        3     0.00000   29.91469   10.80067   28.00020
     273      444        3     0.00000   31.04272   10.14940   27.49799
     274      444        3     0.00000   27.76316   12.04286   29.08995
     275      444        3     0.00000   28.78179   11.45475   29.85020
     276      444        3     0.00000   28.74776   11.47440   31.24565
     277      444        3     0.00000   19.66760   15.34131   21.50731
     278      444        3     0.00000   18.70731   15.96310   20.69942
     279      444        3     0.00000   17.57928   15.27253   20.25280
     280      444        3     0.00000   20.85884   17.40459   21.50731
     281      444        3     0.00000   19.84021   17.92533   20.69942
     282      444        3     0.00000   19.87424   19.24752   20.25280
     283      444        3     0.00000   45.16984   24.70329   38.04223
     284      444        3     0.00000   44.15121   24.18256   38.85012
     285      444        3     0.00000   44.18524   22.86037   39.29674
     286      444        3     0.00000   43.97860   26.76658   38.04223
     287      444        3     0.00000   43.01831   26.14479   38.85012
     288      444        3     0.00000   41.89028   26.83536   39.29674
     289      444        3     0.00000   52.07416   30.06503   30.45959
     290      444        3     0.00000   53.09279   30.65314   29.69934
     291      444        3     0.00000   53.05876   30.63349   28.30390
     292      444        3     0.00000   53.26540   30.75279   32.40488
     293      444        3     0.00000   54.22569   31.30721   31.54935
     294      444        3     0.00000   55.35372   31.95848   32.05155
     295      444        3     0.00000   52.07416   24.70329   38.04223
     296      444        3     0.00000   53.09279   24.18256   38.85012
     297      444        3     0.00000   53.05876   22.86037   39.29674
     298      444        3     0.00000   53.26540   26.76658   38.04223
     299      444        3     0.00000   54.22569   26.14479   38.85012
     300      444        3     0.00000   55.35372   26.83536   39.29674
     301      444        3     0.00000   43.97860   30.75279   32.40488
     302      444        3     0.00000   43.01831   31.30721   31.54935
     303      444        3     0.00000   41.89028   31.95848   32.05155
     304      444        3     0.00000   45.16984   30.06503   30.45959
     305      444        3     0.00000   44.15121   30.65314   29.69934
     306      444        3     0.00000   44.18524   30.63349   28.30390
     307      444        3     0.00000   48.62200   22.71019   32.40488
     308      444        3     0.00000   48.62200   21.60135   31.54935
     309      444        3     0.00000   48.62200   20.29881   32.05155
     310      444        3     0.00000   48.62200   24.08571   30.45959
     311      444        3     0.00000   48.62200   22.90950   29.69934
     312      444        3     0.00000   48.62200   22.94880   28.30390
     313      444        3     0.00000   49.81324   32.74590   38.04223
     314      444        3     0.00000   49.75489   33.88843   38.85012
     315      444        3     0.00000   50.91696   34.52005   39.29674
     316      444        3     0.00000   47.43076   32.74590   38.04223
     317      444        3     0.00000   47.48911   33.88843   38.85012
     318      444        3     0.00000   46.32704   34.52005   39.29674
     319      444        3     0.00000   27.84096   16.07398   21.93011
     320      444        3     0.00000   26.89526   15.52799   22.70227
     321      444        3     0.00000   29.92198   17.27546   20.23097
     322      444        3     0.00000   20.78104   11.99794   27.69451
     323      444        3     0.00000   21.72674   12.54394   26.92235
     324      444        3     0.00000   18.70002   10.79646   29.39366
     325      444        3     0.00000   24.31100    9.95992   21.93011
     326      444        3     0.00000   24.31100   11.05192   22.70227
     327      444        3     0.00000   24.31100    7.55696   20.23097
     328      444        3     0.00000   24.31100   18.11201   27.69451
     329      444        3     0.00000   24.31100   17.02001   26.92235
     330      444        3     0.00000   24.31100   20.51496   29.39366
     331      444        3     0.00000   27.84096   11.99794   27.69451
     332      444        3     0.00000   26.89526   12.54394   26.92235
     333      444        3     0.00000   29.92198   10.79646   29.39366
     334      444        3     0.00000   20.78104   16.07398   21.93011
     335      444        3     0.00000   21.72674   15.52799   22.70227
     336      444        3     0.00000   18.70002   17.27546   20.23097
     337      444        3     0.00000   45.09204   26.03390   37.61943
     338      444        3     0.00000   46.03774   26.57990   36.84727
     339      444        3     0.00000   43.01102   24.83242   39.31858
     340      444        3     0.00000   52.15196   30.10995   31.85504
     341      444        3     0.00000   51.20626   29.56395   32.62720
     342      444        3     0.00000   54.23298   31.31142   30.15589
     343      444        3     0.00000   52.15196   26.03390   37.61943
     344      444        3     0.00000   51.20626   26.57990   36.84727
     345      444        3     0.00000   54.23298   24.83242   39.31858
     346      444        3     0.00000   45.09204   30.10995   31.85504
     347      444        3     0.00000   46.03774   29.56395   32.62720
     348      444        3     0.00000   43.01102   31.31142   30.15589
     349      444        3     0.00000   48.62200   23.99588   31.85504
     350      444        3     0.00000   48.62200   25.08788   32.62720
     351      444        3     0.00000   48.62200   21.59292   30.15589
     352      444        3     0.00000   48.62200   32.14797   37.61943
     353      444        3     0.00000   48.62200   31.05597   36.84727
     354      444        3     0.00000   48.62200   34.55093   39.31858
     355      444        4     0.00000   24.31100   14.03596   24.81231
     356      444        4     0.00000   48.62200   28.07192   34.73723
     357      444        5     0.00000   25.92039   16.22838   23.05163
     358      444        5     0.00000   27.01438   14.33352   23.05163
     359      444        5     0.00000   21.60762   12.47516   25.67975
     360      444        5     0.00000   22.70161   13.10678   27.46624
     361      444        5     0.00000   23.21701   11.54598   23.05163
     362      444        5     0.00000   25.40500   11.54598   23.05163
     363      444        5     0.00000   24.31100   15.89432   27.46624
     364      444        5     0.00000   24.31100   17.15756   25.67975
     365      444        5     0.00000   25.92039   13.10678   27.46624
     366      444        5     0.00000   27.01438   12.47516   25.67975
     367      444        5     0.00000   22.70161   16.22838   23.05163
     368      444        5     0.00000   21.60762   14.33352   23.05163
     369      444        5     0.00000   45.91862   27.77436   36.49792
     370      444        5     0.00000   47.01261   25.87951   36.49792
     371      444        5     0.00000   51.32538   29.63272   33.86980
     372      444        5     0.00000   50.23139   29.00111   32.08331
     373      444        5     0.00000   51.32538   27.77436   36.49792
     374      444        5     0.00000   50.23139   25.87951   36.49792
     375      444        5     0.00000   47.01261   29.00111   32.08331
     376      444        5     0.00000   45.91862   29.63272   33.86980
     377      444        5     0.00000   48.62200   26.21356   32.08331
     378      444        5     0.00000   48.62200   24.95033   33.86980
     379      444        5     0.00000   47.52801   30.56190   36.49792
     380      444        5     0.00000   49.71600   30.56190   36.49792
     381      444        1     0.00000   24.31100   29.91064    4.31238
     382      444        1     0.00000   25.90337   27.15257    4.31238