units           real
atom_style      full
boundary        p p p

pair_style      lj/cut 12.500
bond_style      harmonic
angle_style     hybrid cosine/periodic fourier
dihedral_style  harmonic
improper_style  fourier

pair_modify     tail yes mix arithmetic
dielectric      1.0
special_bonds   lj/coul 0.0 0.0 1.0
box tilt        large

The 'box' command has been removed and will be ignored

read_data       data.UiO-66
Reading data file ...
  triclinic box = (0 0 0) to (44.4522 38.496734 36.295069) with tilt (22.2261 22.2261 12.832245)
WARNING: Triclinic box skew is large. LAMMPS will run inefficiently. (../domain.cpp:220)
  4 by 2 by 4 MPI processor grid
  reading atoms ...
  3078 atoms
  scanning bonds ...
  4 = max bonds/atom
  scanning angles ...
  28 = max angles/atom
  scanning dihedrals ...
  8 = max dihedrals/atom
  scanning impropers ...
  3 = max impropers/atom
  reading bonds ...
  3996 bonds
  reading angles ...
  10044 angles
  reading dihedrals ...
  6480 dihedrals
  reading impropers ...
  4212 impropers
Finding 1-2 1-3 1-4 neighbors ...
  special bond factors lj:    0        0        1       
  special bond factors coul:  0        0        1       
     8 = max # of 1-2 neighbors
    21 = max # of 1-3 neighbors
    22 = max # of special neighbors
  special bonds CPU = 0.002 seconds
  read_data CPU = 0.119 seconds

#### Atom Groupings ####
group           fram     id   1:3078
3078 atoms in group fram
#### END Atom Groupings ####


#############################  Equilibration  ###################################
thermo_style 	custom step temp vol
minimize        0.0 1.0e-3 1000 1000
Generated 15 of 15 mixed pair_coeff terms from arithmetic mixing rule
Neighbor list info ...
  update: every = 1 steps, delay = 0 steps, check = yes
  max neighbors/atom: 2000, page size: 100000
  master list distance cutoff = 14.5
  ghost atom cutoff = 14.5
  binsize = 7.25, bins = 13 8 6
  1 neighbor lists, perpetual/occasional/extra = 1 0 0
  (1) pair lj/cut, perpetual
      attributes: half, newton on
      pair build: half/bin/newton/tri
      stencil: half/bin/3d/tri
      bin: standard
WARNING: Inconsistent image flags (../domain.cpp:815)
Per MPI rank memory allocation (min/avg/max) = 19.68 | 19.7 | 19.71 Mbytes
   Step          Temp          Volume    
         0   0              62110.464    
       154   0              62110.464    
Loop time of 0.377322 on 32 procs for 154 steps with 3078 atoms

82.2% CPU use with 32 MPI tasks x no OpenMP threads

Minimization stats:
  Stopping criterion = force tolerance
  Energy initial, next-to-last, final = 
      133471.746302883    82955.391963871   82955.3919638704
  Force two-norm initial, final = 11354.725 0.00088599017
  Force max component initial, final = 568.42651 3.2567526e-05
  Final line search alpha, max atom move = 1 3.2567526e-05
  Iterations, force evaluations = 154 301

MPI task timing breakdown:
Section |  min time  |  avg time  |  max time  |%varavg| %total
---------------------------------------------------------------
Pair    | 0.098726   | 0.13794    | 0.23231    |   6.4 | 36.56
Bond    | 0.0060564  | 0.0094536  | 0.011566   |   1.2 |  2.51
Neigh   | 0          | 0          | 0          |   0.0 |  0.00
Comm    | 0.095179   | 0.18843    | 0.22748    |   5.5 | 49.94
Output  | 0          | 0          | 0          |   0.0 |  0.00
Modify  | 0          | 0          | 0          |   0.0 |  0.00
Other   |            | 0.04149    |            |       | 11.00

Nlocal:        96.1875 ave         113 max          71 min
Histogram: 1 1 1 3 4 6 6 4 3 3
Nghost:        4470.84 ave        4612 max        4354 min
Histogram: 5 3 0 7 5 4 1 1 5 1
Neighs:        29361.7 ave       34427 max       22106 min
Histogram: 1 0 2 6 1 5 7 4 3 3

Total # of neighbors = 939573
Ave neighs/atom = 305.25439
Ave special neighs/atom = 8.7017544
Neighbor list builds = 0
Dangerous builds = 0
velocity        all create ${t} 331989 rot yes dist gaussian
velocity        all create 100 331989 rot yes dist gaussian

fix             1 all nvt temp ${t} ${t} ${tdamp}
fix             1 all nvt temp 100 ${t} ${tdamp}
fix             1 all nvt temp 100 100 ${tdamp}
fix             1 all nvt temp 100 100 100
thermo          1000
run             ${d1}
run             200000
Generated 15 of 15 mixed pair_coeff terms from arithmetic mixing rule
WARNING: Inconsistent image flags (../domain.cpp:815)
Per MPI rank memory allocation (min/avg/max) = 18.56 | 18.57 | 18.58 Mbytes
   Step          Temp          Volume    
       154   100            62110.464    
      1000   107.14663      62110.464    
      2000   103.45136      62110.464    
      3000   101.9564       62110.464    
      4000   99.027854      62110.464    
      5000   98.521088      62110.464    
      6000   102.92485      62110.464    
      7000   99.608105      62110.464    
      8000   102.18675      62110.464    
      9000   99.706702      62110.464    
     10000   101.21474      62110.464    
     11000   101.78389      62110.464    
     12000   99.172159      62110.464    
     13000   100.95463      62110.464    
     14000   96.767533      62110.464    
     15000   99.825094      62110.464    
     16000   103.89105      62110.464    
     17000   100.02695      62110.464    
     18000   100.60505      62110.464    
     19000   100.01992      62110.464    
     20000   99.547557      62110.464    
     21000   98.52044       62110.464    
     22000   101.86803      62110.464    
     23000   101.10342      62110.464    
     24000   98.002435      62110.464    
     25000   102.90957      62110.464    
     26000   97.624815      62110.464    
     27000   101.04832      62110.464    
     28000   97.621578      62110.464    
     29000   102.22669      62110.464    
     30000   100.69221      62110.464    
     31000   98.16852       62110.464    
     32000   99.953184      62110.464    
     33000   100.49926      62110.464    
     34000   100.1252       62110.464    
     35000   97.119634      62110.464    
     36000   98.987635      62110.464    
     37000   98.472581      62110.464    
     38000   98.982599      62110.464    
     39000   101.6117       62110.464    
     40000   97.776224      62110.464    
     41000   100.20092      62110.464    
     42000   100.03742      62110.464    
     43000   101.05654      62110.464    
     44000   98.099077      62110.464    
     45000   100.85827      62110.464    
     46000   100.67702      62110.464    
     47000   101.97302      62110.464    
     48000   98.461611      62110.464    
     49000   99.636687      62110.464    
     50000   97.716443      62110.464    
     51000   100.85729      62110.464    
     52000   101.63934      62110.464    
     53000   99.229724      62110.464    
     54000   100.20946      62110.464    
     55000   99.641678      62110.464    
     56000   100.26102      62110.464    
     57000   98.808191      62110.464    
     58000   101.00264      62110.464    
     59000   98.566822      62110.464    
     60000   100.56073      62110.464    
     61000   100.61971      62110.464    
     62000   100.63594      62110.464    
     63000   97.51061       62110.464    
     64000   101.23566      62110.464    
     65000   100.84794      62110.464    
     66000   100.4085       62110.464    
     67000   97.950719      62110.464    
     68000   101.6631       62110.464    
     69000   101.67844      62110.464    
     70000   98.914365      62110.464    
     71000   101.38211      62110.464    
     72000   100.27081      62110.464    
     73000   97.83991       62110.464    
     74000   99.830415      62110.464    
     75000   100.06103      62110.464    
     76000   99.615967      62110.464    
     77000   104.37377      62110.464    
     78000   99.348688      62110.464    
     79000   98.394945      62110.464    
     80000   101.87976      62110.464    
     81000   97.628965      62110.464    
     82000   102.80882      62110.464    
     83000   98.222386      62110.464    
     84000   99.953196      62110.464    
     85000   99.921702      62110.464    
     86000   98.699571      62110.464    
     87000   99.199286      62110.464    
     88000   102.30521      62110.464    
     89000   99.306554      62110.464    
     90000   101.56209      62110.464    
     91000   99.897555      62110.464    
     92000   101.19017      62110.464    
     93000   102.34449      62110.464    
     94000   98.885258      62110.464    
     95000   101.40526      62110.464    
     96000   99.169387      62110.464    
     97000   99.469879      62110.464    
     98000   102.42517      62110.464    
     99000   97.034599      62110.464    
    100000   101.79212      62110.464    
    101000   99.79515       62110.464    
    102000   100.20067      62110.464    
    103000   98.148909      62110.464    
    104000   100.95849      62110.464    
    105000   99.22633       62110.464    
    106000   99.263358      62110.464    
    107000   99.076159      62110.464    
    108000   100.37922      62110.464    
    109000   99.8946        62110.464    
    110000   99.819113      62110.464    
    111000   100.10894      62110.464    
    112000   101.32625      62110.464    
    113000   101.05014      62110.464    
    114000   99.486336      62110.464    
    115000   100.93577      62110.464    
    116000   100.02464      62110.464    
    117000   101.44202      62110.464    
    118000   99.1821        62110.464    
    119000   102.04587      62110.464    
    120000   100.33725      62110.464    
    121000   99.522713      62110.464    
    122000   97.867754      62110.464    
    123000   101.00267      62110.464    
    124000   100.17728      62110.464    
    125000   100.12706      62110.464    
    126000   100.67823      62110.464    
    127000   100.64446      62110.464    
    128000   98.022189      62110.464    
    129000   101.00925      62110.464    
    130000   98.941255      62110.464    
    131000   99.72173       62110.464    
    132000   99.769643      62110.464    
    133000   101.42968      62110.464    
    134000   100.65096      62110.464    
    135000   98.126443      62110.464    
    136000   100.2533       62110.464    
    137000   99.624469      62110.464    
    138000   99.144235      62110.464    
    139000   99.488883      62110.464    
    140000   99.916306      62110.464    
    141000   99.454087      62110.464    
    142000   100.67593      62110.464    
    143000   98.098955      62110.464    
    144000   101.73762      62110.464    
    145000   99.720826      62110.464    
    146000   103.36658      62110.464    
    147000   101.20873      62110.464    
    148000   98.881619      62110.464    
    149000   97.900166      62110.464    
    150000   99.840124      62110.464    
    151000   99.845697      62110.464    
    152000   98.599906      62110.464    
    153000   103.07792      62110.464    
    154000   99.867395      62110.464    
    155000   100.16367      62110.464    
    156000   100.52392      62110.464    
    157000   96.316293      62110.464    
    158000   99.962135      62110.464    
    159000   98.900236      62110.464    
    160000   101.71364      62110.464    
    161000   99.572411      62110.464    
    162000   98.069426      62110.464    
    163000   99.768697      62110.464    
    164000   100.52366      62110.464    
    165000   101.34169      62110.464    
    166000   99.469357      62110.464    
    167000   99.826472      62110.464    
    168000   98.612179      62110.464    
    169000   96.224298      62110.464    
    170000   102.95336      62110.464    
    171000   98.632777      62110.464    
    172000   99.663081      62110.464    
    173000   98.379546      62110.464    
    174000   97.59533       62110.464    
    175000   100.64361      62110.464    
    176000   102.50138      62110.464    
    177000   98.838851      62110.464    
    178000   99.332101      62110.464    
    179000   100.72106      62110.464    
    180000   97.724991      62110.464    
    181000   101.9939       62110.464    
    182000   99.45347       62110.464    
    183000   100.86054      62110.464    
    184000   99.89492       62110.464    
    185000   100.70892      62110.464    
    186000   100.68198      62110.464    
    187000   101.86427      62110.464    
    188000   100.78796      62110.464    
    189000   100.39539      62110.464    
    190000   98.510313      62110.464    
    191000   100.32165      62110.464    
    192000   100.21746      62110.464    
    193000   99.856641      62110.464    
    194000   99.813901      62110.464    
    195000   99.043829      62110.464    
    196000   102.25996      62110.464    
    197000   100.30538      62110.464    
    198000   101.15059      62110.464    
    199000   99.205062      62110.464    
    200000   100.25983      62110.464    
    200154   100.19303      62110.464    
Loop time of 168.519 on 32 procs for 200000 steps with 3078 atoms

Performance: 102.540 ns/day, 0.234 hours/ns, 1186.809 timesteps/s, 3.653 Matom-step/s
86.9% CPU use with 32 MPI tasks x no OpenMP threads

MPI task timing breakdown:
Section |  min time  |  avg time  |  max time  |%varavg| %total
---------------------------------------------------------------
Pair    | 38.338     | 62.503     | 75.866     |  96.6 | 37.09
Bond    | 3.0879     | 5.7371     | 7.1058     |  35.0 |  3.40
Neigh   | 2.5285     | 2.552      | 2.587      |   1.0 |  1.51
Comm    | 72.82      | 86.985     | 113.05     |  87.7 | 51.62
Output  | 0.0052593  | 0.0068694  | 0.031908   |   5.5 |  0.00
Modify  | 6.6787     | 7.3055     | 8.0122     |  14.8 |  4.34
Other   |            | 3.43       |            |       |  2.04

Nlocal:        96.1875 ave         113 max          64 min
Histogram: 1 0 1 2 3 6 5 6 3 5
Nghost:        4398.91 ave        4635 max        4186 min
Histogram: 3 5 0 2 8 6 1 1 2 4
Neighs:          29586 ave       35068 max       20204 min
Histogram: 1 0 2 1 5 5 6 4 4 4

Total # of neighbors = 946751
Ave neighs/atom = 307.58642
Ave special neighs/atom = 8.7017544
Neighbor list builds = 1473
Dangerous builds = 0
unfix		1

fix             1 all npt temp ${t} ${t} ${tdamp} tri ${p} ${p} ${pdamp}
fix             1 all npt temp 100 ${t} ${tdamp} tri ${p} ${p} ${pdamp}
fix             1 all npt temp 100 100 ${tdamp} tri ${p} ${p} ${pdamp}
fix             1 all npt temp 100 100 100 tri ${p} ${p} ${pdamp}
fix             1 all npt temp 100 100 100 tri 1 ${p} ${pdamp}
fix             1 all npt temp 100 100 100 tri 1 1 ${pdamp}
fix             1 all npt temp 100 100 100 tri 1 1 1000
thermo          1000
run             ${d2}
run             200000
Generated 15 of 15 mixed pair_coeff terms from arithmetic mixing rule
WARNING: Inconsistent image flags (../domain.cpp:815)
Per MPI rank memory allocation (min/avg/max) = 18.57 | 18.59 | 18.6 Mbytes
   Step          Temp          Volume    
    200154   100.19303      62110.464    
    201000   97.162938      58842.367    
    202000   100.82076      58826.02     
    203000   100.11187      58733.181    
    204000   101.73571      58824.64     
    205000   98.618683      58736.045    
    206000   101.32754      58762.125    
    207000   101.54475      58824.921    
    208000   101.87823      58825.406    
    209000   98.3448        58722.639    
    210000   102.15187      58788.861    
    211000   100.07926      58875.285    
    212000   100.51131      58801.152    
    213000   98.764394      58764.023    
    214000   100.99851      58798.892    
    215000   97.906385      58834.596    
    216000   99.466475      58760.929    
    217000   102.42428      58727.047    
    218000   99.386203      58791.091    
    219000   102.07195      58870.961    
    220000   100.04726      58782.473    
    221000   101.09919      58775.896    
    222000   100.9162       58799.057    
    223000   97.412307      58817.655    
    224000   99.529877      58794.669    
    225000   99.258197      58787.462    
    226000   101.15062      58795.291    
    227000   99.958754      58841.706    
    228000   98.644847      58819.848    
    229000   101.7123       58738.606    
    230000   97.30591       58828.595    
    231000   99.805068      58817.942    
    232000   101.91267      58807.391    
    233000   99.536867      58735.914    
    234000   99.835601      58840.168    
    235000   99.82876       58832.785    
    236000   99.945892      58721.196    
    237000   99.041362      58806.12     
    238000   101.54198      58855.36     
    239000   100.4939       58777.516    
    240000   101.83014      58736.672    
    241000   99.913289      58838.84     
    242000   99.049341      58792.594    
    243000   100.9949       58778.459    
    244000   98.673955      58768.828    
    245000   101.7798       58799.319    
    246000   98.234656      58768.178    
    247000   100.15471      58830.509    
    248000   98.426275      58826.746    
    249000   99.428338      58754.009    
    250000   100.91066      58860.157    
    251000   99.308476      58832.494    
    252000   99.414945      58775.093    
    253000   97.610903      58807.568    
    254000   103.11728      58823.087    
    255000   98.660945      58795.089    
    256000   101.18125      58795.169    
    257000   100.67902      58776.434    
    258000   102.18229      58797.762    
    259000   98.482955      58809.838    
    260000   98.608069      58779.868    
    261000   103.25895      58724.371    
    262000   98.722598      58814.668    
    263000   102.69493      58847.34     
    264000   100.78835      58718.847    
    265000   99.927844      58809.939    
    266000   102.29684      58832.148    
    267000   101.52339      58759.892    
    268000   98.228532      58821.718    
    269000   101.3831       58801.345    
    270000   100.3502       58765.33     
    271000   99.247389      58787.771    
    272000   100.42716      58795.117    
    273000   100.22469      58740.175    
    274000   101.60466      58802.961    
    275000   98.192941      58817.261    
    276000   99.997955      58774.565    
    277000   100.93137      58800.376    
    278000   100.11671      58811.895    
    279000   101.12873      58783.184    
    280000   99.876654      58816.277    
    281000   99.726746      58790.26     
    282000   99.016692      58813.331    
    283000   99.561771      58782.211    
    284000   102.7051       58782.689    
    285000   100.93722      58816.134    
    286000   99.85683       58794.096    
    287000   98.695917      58780.189    
    288000   100.58628      58785.898    
    289000   100.07987      58836.903    
    290000   98.058309      58799.421    
    291000   102.75796      58773.015    
    292000   99.837956      58772.819    
    293000   100.85552      58791.209    
    294000   97.012478      58808.834    
    295000   101.00574      58758.437    
    296000   99.562679      58841.708    
    297000   100.53646      58837.627    
    298000   100.47367      58735.015    
    299000   102.84189      58842.177    
    300000   98.068716      58853.392    
    301000   101.43674      58725.874    
    302000   100.12596      58839.166    
    303000   100.27314      58823.221    
    304000   99.988497      58711.288    
    305000   102.74754      58779.436    
    306000   97.908495      58837.878    
    307000   98.765905      58722.353    
    308000   98.691748      58805.987    
    309000   99.195665      58894.642    
    310000   98.24398       58756.93     
    311000   99.80753       58840.432    
    312000   100.92035      58855.037    
    313000   99.292622      58782.981    
    314000   99.314542      58741.729    
    315000   98.954778      58862.664    
    316000   101.8632       58800.075    
    317000   99.976787      58753.544    
    318000   99.080847      58872.32     
    319000   98.554905      58802.588    
    320000   101.95128      58773.727    
    321000   99.671049      58874.634    
    322000   101.20177      58789.21     
    323000   101.17722      58731.848    
    324000   100.94048      58839.971    
    325000   101.1653       58786.176    
    326000   98.262548      58739.547    
    327000   100.50683      58822.993    
    328000   98.688604      58813.188    
    329000   101.08679      58701.055    
    330000   98.18359       58801.237    
    331000   101.27469      58814.995    
    332000   101.00048      58714.859    
    333000   99.85304       58795.068    
    334000   99.388428      58809.846    
    335000   99.556589      58733.144    
    336000   101.06165      58792.305    
    337000   98.717492      58835.433    
    338000   101.78008      58780.142    
    339000   98.537719      58750.259    
    340000   99.248141      58822.824    
    341000   99.900884      58783.105    
    342000   99.712018      58767.362    
    343000   101.05366      58838.326    
    344000   99.176006      58800.959    
    345000   97.916342      58773.44     
    346000   102.46593      58852.025    
    347000   102.82499      58788.51     
    348000   98.484992      58738.988    
    349000   100.30854      58865.502    
    350000   100.49574      58821.468    
    351000   101.3867       58682.019    
    352000   98.718089      58818.842    
    353000   99.772243      58900.737    
    354000   97.554994      58745.426    
    355000   100.32859      58738.652    
    356000   100.47667      58862.525    
    357000   99.916684      58787.381    
    358000   98.34831       58733.181    
    359000   102.88505      58827.29     
    360000   98.859183      58798.95     
    361000   99.401957      58713.073    
    362000   98.267683      58820.104    
    363000   102.21803      58847.718    
    364000   101.54778      58732.489    
    365000   99.843775      58824.291    
    366000   100.51869      58802.908    
    367000   99.816616      58713.936    
    368000   98.099017      58799.28     
    369000   101.38985      58863.411    
    370000   100.48182      58790.357    
    371000   101.31835      58753.947    
    372000   101.92283      58881.463    
    373000   97.518339      58803.044    
    374000   101.02777      58757.648    
    375000   99.558535      58743.885    
    376000   99.910572      58823.304    
    377000   101.3492       58783.796    
    378000   100.24429      58805.583    
    379000   100.8136       58830.095    
    380000   99.931689      58779.209    
    381000   99.075223      58774.211    
    382000   99.985397      58860.687    
    383000   100.46064      58797.657    
    384000   101.55909      58722.173    
    385000   100.17878      58846.341    
    386000   101.74751      58821.847    
    387000   102.7973       58751.358    
    388000   98.325138      58805.429    
    389000   99.3256        58838.024    
    390000   99.542673      58802.754    
    391000   98.785675      58761.625    
    392000   98.471154      58819.657    
    393000   101.89079      58818.22     
    394000   99.844227      58757.278    
    395000   101.3746       58823.473    
    396000   100.03464      58818.271    
    397000   97.8095        58777.396    
    398000   98.255113      58806.617    
    399000   100.06534      58839.716    
    400000   98.608501      58783.397    
    400154   98.755942      58798.932    
Loop time of 190.61 on 32 procs for 200000 steps with 3078 atoms

Performance: 90.656 ns/day, 0.265 hours/ns, 1049.262 timesteps/s, 3.230 Matom-step/s
87.2% CPU use with 32 MPI tasks x no OpenMP threads

MPI task timing breakdown:
Section |  min time  |  avg time  |  max time  |%varavg| %total
---------------------------------------------------------------
Pair    | 44.884     | 71.795     | 84.623     |  98.1 | 37.67
Bond    | 3.75       | 6.9741     | 8.6749     |  38.2 |  3.66
Neigh   | 3.1544     | 3.2187     | 3.268      |   1.7 |  1.69
Comm    | 75.863     | 89.362     | 118.21     |  93.4 | 46.88
Output  | 0.0049561  | 0.0067459  | 0.034454   |   6.1 |  0.00
Modify  | 16.173     | 16.967     | 18.258     |  18.0 |  8.90
Other   |            | 2.287      |            |       |  1.20

Nlocal:        96.1875 ave         114 max          60 min
Histogram: 1 0 0 2 1 8 4 8 5 3
Nghost:        4483.06 ave        4636 max        4326 min
Histogram: 2 6 0 0 10 6 0 1 1 6
Neighs:        31460.2 ave       37622 max       20147 min
Histogram: 1 0 0 3 3 6 6 5 6 2

Total # of neighbors = 1006725
Ave neighs/atom = 327.07115
Ave special neighs/atom = 8.7017544
Neighbor list builds = 1748
Dangerous builds = 0

reset_timestep  0
#############################  Production ###################################
variable        V       equal vol 		    #Volume variable
variable        a	 	equal cella 		#Lattice variable
variable        b	 	equal cellb 		#Lattice variable
variable        c	 	equal cellc 		#Lattice variable
fix 			4 all ave/time 1 ${d3} ${d3} v_V v_a v_b v_c ave running file results_${t}.txt overwrite
fix 			4 all ave/time 1 600000 ${d3} v_V v_a v_b v_c ave running file results_${t}.txt overwrite
fix 			4 all ave/time 1 600000 600000 v_V v_a v_b v_c ave running file results_${t}.txt overwrite
fix 			4 all ave/time 1 600000 600000 v_V v_a v_b v_c ave running file results_100.txt overwrite
fix 			5 all ave/time 1 10000 10000 v_V v_a v_b v_c file summary_${t}.txt
fix 			5 all ave/time 1 10000 10000 v_V v_a v_b v_c file summary_100.txt
thermo          1000
run             ${d3}
run             600000
Generated 15 of 15 mixed pair_coeff terms from arithmetic mixing rule
WARNING: Inconsistent image flags (../domain.cpp:815)
Per MPI rank memory allocation (min/avg/max) = 18.57 | 18.59 | 18.6 Mbytes
   Step          Temp          Volume    
         0   98.755942      58798.932    
      1000   97.759003      58798.006    
      2000   100.68163      58835.133    
      3000   99.691186      58795.909    
      4000   98.829613      58791.383    
      5000   101.18442      58816.171    
      6000   101.35537      58752.154    
      7000   101.93395      58779.073    
      8000   99.860323      58819.889    
      9000   98.880902      58810.43     
     10000   96.985248      58759.131    
     11000   101.70935      58836.212    
     12000   98.814389      58787.125    
     13000   99.606835      58764.389    
     14000   101.42493      58838.408    
     15000   99.937002      58812.428    
     16000   99.350024      58736.886    
     17000   98.881041      58820.678    
     18000   101.01781      58850.648    
     19000   100.01868      58745.934    
     20000   100.48205      58799.517    
     21000   99.887967      58832.597    
     22000   102.45642      58795.286    
     23000   99.645533      58723.47     
     24000   98.900968      58832.87     
     25000   100.55054      58831.185    
     26000   100.09766      58759.842    
     27000   100.00785      58808.748    
     28000   99.478435      58807.771    
     29000   98.168213      58793.583    
     30000   100.66859      58801.113    
     31000   97.59634       58791.824    
     32000   99.534838      58773.779    
     33000   98.132437      58826.786    
     34000   99.454084      58796.734    
     35000   101.20782      58781.08     
     36000   100.69538      58825.092    
     37000   98.984346      58814.665    
     38000   99.766821      58850.213    
     39000   100.1527       58763.883    
     40000   100.1294       58856.329    
     41000   101.19649      58779.4      
     42000   95.902336      58794.765    
     43000   99.765779      58872.003    
     44000   99.791495      58758.55     
     45000   99.920005      58767.594    
     46000   99.471089      58840.285    
     47000   100.21149      58802.144    
     48000   100.57067      58739.076    
     49000   99.564407      58850.701    
     50000   99.575849      58769.272    
     51000   101.09381      58756.977    
     52000   96.659698      58830.077    
     53000   101.49363      58862.844    
     54000   99.489215      58767.68     
     55000   100.49131      58792.708    
     56000   99.992296      58848.9      
     57000   99.672866      58770.956    
     58000   98.510517      58760.77     
     59000   100.30982      58808.568    
     60000   100.40049      58817.267    
     61000   98.689933      58783.539    
     62000   99.836223      58787.568    
     63000   100.43409      58828.296    
     64000   98.007507      58781.433    
     65000   100.75699      58797.108    
     66000   98.461211      58790.372    
     67000   98.470379      58800.59     
     68000   101.31568      58785.228    
     69000   101.76567      58823.253    
     70000   99.911748      58813.477    
     71000   99.477067      58768.245    
     72000   99.011651      58806.319    
     73000   99.437196      58842.522    
     74000   100.66902      58751.502    
     75000   100.87805      58760.517    
     76000   98.330222      58839.925    
     77000   100.46846      58765.746    
     78000   99.327788      58762.107    
     79000   99.060239      58827.697    
     80000   99.530024      58820.568    
     81000   97.505844      58802.788    
     82000   99.919341      58813.504    
     83000   100.23031      58836.446    
     84000   101.34185      58799.22     
     85000   100.95693      58789.074    
     86000   101.80251      58849.193    
     87000   99.405395      58780.182    
     88000   97.226473      58763.545    
     89000   100.06542      58802        
     90000   99.275425      58750.134    
     91000   99.875278      58788.049    
     92000   101.50857      58848.278    
     93000   101.45112      58815.972    
     94000   100.46515      58736.539    
     95000   99.311525      58795.433    
     96000   99.623836      58862.167    
     97000   99.68661       58749.663    
     98000   100.51188      58825.242    
     99000   100.91365      58829.196    
    100000   97.935128      58747.486    
    101000   101.2051       58810.308    
    102000   100.75503      58845.715    
    103000   102.16688      58710.197    
    104000   99.460652      58795.325    
    105000   96.869586      58853.666    
    106000   100.30193      58757.277    
    107000   99.868964      58765.351    
    108000   100.68872      58802.572    
    109000   97.826769      58823.824    
    110000   99.537368      58762.633    
    111000   101.85376      58807.831    
    112000   99.518906      58801.017    
    113000   100.30222      58776.906    
    114000   102.13687      58807.214    
    115000   100.77131      58797.877    
    116000   100.50001      58818.311    
    117000   99.339142      58773.788    
    118000   99.818087      58781.967    
    119000   98.430184      58807.167    
    120000   100.11994      58791.909    
    121000   97.981949      58825.975    
    122000   99.46237       58789.993    
    123000   101.29525      58774.836    
    124000   99.898416      58839.733    
    125000   102.74193      58822.126    
    126000   98.505595      58748.933    
    127000   100.38759      58789.1      
    128000   100.97418      58785.092    
    129000   100.50707      58799.744    
    130000   101.11438      58806.303    
    131000   99.366071      58785.198    
    132000   97.957742      58761.202    
    133000   100.78349      58807.169    
    134000   101.2399       58809.083    
    135000   99.296963      58722.408    
    136000   99.00587       58841.208    
    137000   96.78564       58811.56     
    138000   102.46747      58710.714    
    139000   101.56532      58792.591    
    140000   100.39939      58823.791    
    141000   102.04839      58803.421    
    142000   100.07485      58825.871    
    143000   101.74204      58797.723    
    144000   99.760102      58748.771    
    145000   100.77774      58819.279    
    146000   97.406935      58830.864    
    147000   99.804862      58765.385    
    148000   99.924434      58796.872    
    149000   101.1427       58842.623    
    150000   98.744407      58721.41     
    151000   100.21395      58775.481    
    152000   99.157833      58870.552    
    153000   101.99609      58772.939    
    154000   100.8988       58746.168    
    155000   101.09912      58822.994    
    156000   100.75558      58835.19     
    157000   101.55311      58771.942    
    158000   100.42944      58766.385    
    159000   98.934659      58779.93     
    160000   102.13585      58790.509    
    161000   100.57123      58813.524    
    162000   99.911037      58754.743    
    163000   98.153498      58793.321    
    164000   98.882362      58800.327    
    165000   99.946227      58798.532    
    166000   99.868093      58771.517    
    167000   101.08498      58780.041    
    168000   99.855205      58815.008    
    169000   102.13592      58788.308    
    170000   103.39567      58746.645    
    171000   98.267286      58776.596    
    172000   101.24219      58794.166    
    173000   99.452202      58820.324    
    174000   99.44362       58743.354    
    175000   101.00686      58767.359    
    176000   100.99296      58825.758    
    177000   97.842537      58799.99     
    178000   99.625766      58770.714    
    179000   100.00274      58806.14     
    180000   100.55721      58790.711    
    181000   96.763915      58791.53     
    182000   100.80054      58789.088    
    183000   99.107288      58766.806    
    184000   98.508173      58790.8      
    185000   100.7677       58805.147    
    186000   97.969222      58798.444    
    187000   100.26262      58812.232    
    188000   97.119189      58811.886    
    189000   101.62566      58850.858    
    190000   97.309162      58787.479    
    191000   101.02103      58777.663    
    192000   99.959369      58773.928    
    193000   99.405814      58822.376    
    194000   99.22545       58796.667    
    195000   99.714922      58759.272    
    196000   101.93908      58803.494    
    197000   99.557977      58790.174    
    198000   97.473528      58805.908    
    199000   99.430435      58795.63     
    200000   99.582107      58767.1      
    201000   100.75243      58796.065    
    202000   102.17062      58787.638    
    203000   96.823564      58821.543    
    204000   102.42057      58774.853    
    205000   99.708983      58799.731    
    206000   100.19957      58787.975    
    207000   100.77863      58799.123    
    208000   98.024974      58793.215    
    209000   101.03851      58757.708    
    210000   97.484666      58858.646    
    211000   101.569        58777.229    
    212000   100.78475      58788.546    
    213000   101.18369      58817.348    
    214000   101.77629      58798.863    
    215000   97.954819      58807.193    
    216000   100.28271      58779.749    
    217000   100.91259      58756.515    
    218000   100.03093      58776.304    
    219000   100.7079       58830.68     
    220000   99.543263      58753.236    
    221000   103.32964      58793.734    
    222000   96.883716      58805.661    
    223000   99.7848        58863.585    
    224000   99.410828      58771.993    
    225000   99.577539      58774.227    
    226000   99.759873      58827.697    
    227000   99.347189      58756.335    
    228000   98.839506      58815.251    
    229000   101.35565      58785.352    
    230000   99.153488      58705.093    
    231000   99.200253      58804.955    
    232000   101.49258      58835.678    
    233000   98.855909      58768.911    
    234000   99.464718      58763.687    
    235000   97.157064      58841.927    
    236000   100.52845      58805.923    
    237000   100.19953      58772.695    
    238000   100.27944      58824.675    
    239000   96.577778      58838.067    
    240000   99.524825      58817.697    
    241000   98.946909      58769.923    
    242000   97.707857      58820.706    
    243000   101.28826      58769.838    
    244000   99.85155       58819.422    
    245000   100.20618      58839.89     
    246000   98.965247      58770.436    
    247000   99.24288       58772.465    
    248000   101.91046      58855.176    
    249000   98.088081      58794.701    
    250000   100.60668      58751.355    
    251000   100.18912      58847.46     
    252000   96.114311      58804.82     
    253000   99.463794      58782.837    
    254000   101.70096      58782.874    
    255000   99.552056      58879.432    
    256000   100.04255      58777.152    
    257000   100.86509      58770.619    
    258000   101.78515      58841.981    
    259000   101.16807      58743.921    
    260000   100.88         58757.151    
    261000   99.380265      58766.679    
    262000   100.39857      58784.05     
    263000   99.154303      58799.807    
    264000   99.609188      58801.105    
    265000   99.970724      58770.267    
    266000   97.662723      58818.721    
    267000   101.68566      58848.662    
    268000   100.92778      58802.338    
    269000   102.40825      58774.448    
    270000   100.31125      58787.354    
    271000   101.59177      58812.005    
    272000   101.51867      58785.656    
    273000   99.193371      58761.477    
    274000   100.81005      58814.646    
    275000   98.724264      58817.897    
    276000   101.15874      58767.895    
    277000   102.06243      58784.299    
    278000   98.553957      58860.172    
    279000   101.48117      58776.834    
    280000   102.06876      58757.977    
    281000   98.529007      58814.25     
    282000   97.458407      58827.658    
    283000   101.38755      58710.107    
    284000   102.22479      58796.807    
    285000   97.977156      58796.086    
    286000   101.32048      58765.431    
    287000   98.105722      58767.2      
    288000   101.32889      58852.611    
    289000   96.987193      58776.439    
    290000   99.44775       58765.397    
    291000   99.688671      58892.306    
    292000   99.78212       58794.96     
    293000   100.98537      58767.323    
    294000   98.862427      58858.245    
    295000   100.42436      58800.091    
    296000   101.64805      58723.17     
    297000   99.987725      58851.152    
    298000   101.71284      58823.768    
    299000   100.98322      58738.756    
    300000   97.77267       58806.569    
    301000   99.467041      58837.497    
    302000   99.714765      58769.42     
    303000   97.036809      58746.077    
    304000   101.48058      58834.524    
    305000   101.89072      58749.684    
    306000   103.55229      58778.483    
    307000   99.424702      58825.143    
    308000   98.640483      58745.277    
    309000   102.03662      58829.933    
    310000   99.883077      58855.414    
    311000   100.03168      58748.156    
    312000   99.667994      58773.009    
    313000   99.597292      58845.921    
    314000   100.80315      58775.381    
    315000   99.994642      58730.166    
    316000   103.63001      58826.508    
    317000   99.015384      58807.328    
    318000   102.75192      58726.335    
    319000   99.223479      58865.434    
    320000   96.85169       58819.199    
    321000   100.00518      58771.106    
    322000   98.22823       58823.577    
    323000   101.82472      58841.992    
    324000   100.97242      58726.279    
    325000   101.24251      58813.28     
    326000   100.82597      58823.108    
    327000   99.57552       58765.149    
    328000   101.93418      58750.269    
    329000   96.224068      58812.487    
    330000   100.31551      58820.447    
    331000   102.04159      58732.278    
    332000   99.501408      58819.063    
    333000   100.80337      58802.826    
    334000   99.524334      58753.072    
    335000   98.905326      58799.342    
    336000   100.74619      58803.654    
    337000   100.03366      58821.863    
    338000   97.527592      58753.265    
    339000   99.612226      58826.859    
    340000   99.165228      58809.734    
    341000   98.324659      58853.468    
    342000   100.95383      58792.537    
    343000   98.226544      58760.755    
    344000   99.908588      58821.318    
    345000   101.17134      58838.4      
    346000   100.69077      58714.628    
    347000   100.47577      58821.305    
    348000   96.785969      58819.628    
    349000   100.82068      58779.863    
    350000   97.421677      58747.371    
    351000   100.19806      58834.456    
    352000   97.506401      58816.08     
    353000   99.699659      58744.017    
    354000   100.68435      58814.136    
    355000   99.86353       58861.59     
    356000   104.34863      58754.583    
    357000   99.843599      58778.502    
    358000   98.990616      58858.673    
    359000   98.875593      58775.306    
    360000   98.222909      58720.981    
    361000   99.366073      58828.792    
    362000   97.028278      58824.177    
    363000   101.20164      58756.399    
    364000   97.623304      58801.447    
    365000   99.618799      58859.92     
    366000   97.447184      58755.673    
    367000   99.980858      58798.259    
    368000   99.827752      58836.264    
    369000   98.48479       58737.325    
    370000   99.073346      58781.59     
    371000   99.421523      58850.532    
    372000   102.11836      58825.452    
    373000   99.071764      58750.617    
    374000   100.23609      58819.753    
    375000   99.360783      58790.165    
    376000   102.26738      58782.098    
    377000   101.78758      58812.587    
    378000   100.88488      58753.702    
    379000   101.44913      58768.197    
    380000   99.847668      58855.752    
    381000   100.8072       58773.853    
    382000   101.2262       58753.026    
    383000   98.1728        58830.277    
    384000   98.398183      58805.109    
    385000   102.50201      58789.348    
    386000   101.06658      58824.687    
    387000   100.25762      58777.773    
    388000   99.476803      58789.225    
    389000   102.77247      58814.804    
    390000   100.42916      58767.525    
    391000   100.71889      58852.059    
    392000   99.038336      58787.026    
    393000   100.38831      58775.908    
    394000   101.67679      58851.414    
    395000   97.187666      58800.884    
    396000   102.37965      58775.392    
    397000   101.03762      58835.859    
    398000   100.21906      58827.735    
    399000   99.933834      58760.113    
    400000   99.434135      58816.077    
    401000   101.56819      58832.983    
    402000   99.937479      58787.633    
    403000   99.390096      58793.493    
    404000   99.761715      58844.622    
    405000   100.77103      58782.473    
    406000   101.92025      58758.558    
    407000   100.33624      58799.45     
    408000   100.67432      58806.452    
    409000   100.34833      58786.524    
    410000   99.89619       58791.207    
    411000   99.645923      58841.052    
    412000   98.620747      58791.426    
    413000   100.67245      58812.924    
    414000   98.622545      58876.597    
    415000   98.57592       58789.658    
    416000   101.89927      58785.679    
    417000   97.366311      58831.781    
    418000   98.610381      58778.776    
    419000   99.424955      58764.342    
    420000   100.65027      58794.913    
    421000   102.22066      58818.899    
    422000   100.88545      58806.294    
    423000   100.44464      58756.389    
    424000   100.63502      58795.783    
    425000   98.672532      58819.878    
    426000   98.816836      58802.945    
    427000   99.169937      58770.331    
    428000   98.746715      58824.078    
    429000   99.400073      58835.101    
    430000   100.8005       58717.861    
    431000   100.23373      58809.079    
    432000   99.461994      58861.915    
    433000   101.98519      58738.6      
    434000   100.72747      58750.383    
    435000   101.10893      58878.853    
    436000   101.21772      58780.728    
    437000   100.6617       58756.614    
    438000   101.62067      58868.48     
    439000   98.02678       58791.159    
    440000   100.44191      58769.612    
    441000   99.52422       58830.393    
    442000   101.0072       58803.369    
    443000   98.973985      58731.802    
    444000   99.368092      58802.938    
    445000   98.912874      58780.708    
    446000   99.741902      58783.344    
    447000   103.36447      58857.767    
    448000   100.10579      58761.204    
    449000   98.798517      58789.614    
    450000   100.05151      58860.955    
    451000   101.02969      58794.826    
    452000   100.53182      58726.207    
    453000   99.687539      58791.707    
    454000   101.09119      58800.796    
    455000   99.012138      58798.845    
    456000   98.967291      58796.896    
    457000   101.19328      58805.689    
    458000   100.84902      58806.959    
    459000   98.805866      58820.844    
    460000   102.87955      58792.619    
    461000   99.661013      58765.162    
    462000   102.64429      58848.398    
    463000   99.52501       58760.873    
    464000   96.819653      58758.637    
    465000   98.155234      58815.868    
    466000   100.32629      58815.268    
    467000   99.443142      58752.44     
    468000   100.68852      58798.27     
    469000   102.09026      58839.362    
    470000   98.011912      58752.359    
    471000   101.96526      58788.895    
    472000   101.25248      58810.816    
    473000   101.81038      58810.375    
    474000   98.982332      58740.28     
    475000   100.99729      58813.853    
    476000   99.394884      58812.154    
    477000   102.38431      58757.887    
    478000   97.816645      58748.905    
    479000   97.953244      58824.686    
    480000   99.319998      58819.404    
    481000   98.954257      58790.931    
    482000   100.02663      58837.109    
    483000   98.766039      58767.517    
    484000   100.13752      58793.919    
    485000   99.597958      58802.986    
    486000   101.25744      58761.939    
    487000   98.873757      58790.154    
    488000   101.75947      58767.348    
    489000   99.57621       58724.824    
    490000   102.63529      58818.892    
    491000   97.227356      58846.808    
    492000   100.92673      58745.627    
    493000   97.371115      58769.487    
    494000   100.07347      58849.575    
    495000   102.30273      58825.662    
    496000   99.267136      58744.064    
    497000   98.195166      58832.627    
    498000   100.20569      58823.584    
    499000   101.69623      58761.401    
    500000   102.34156      58782.431    
    501000   101.88085      58848.394    
    502000   97.591517      58726.439    
    503000   101.27831      58779.484    
    504000   100.62215      58817.878    
    505000   99.8158        58804.513    
    506000   103.50506      58799.31     
    507000   101.25949      58832.649    
    508000   103.69438      58820.823    
    509000   99.7492        58806.01     
    510000   100.8119       58761.083    
    511000   99.420857      58800.739    
    512000   99.444997      58789.761    
    513000   100.91959      58761.862    
    514000   97.995407      58791.345    
    515000   102.19028      58801.164    
    516000   97.232646      58773.902    
    517000   99.973591      58799.78     
    518000   100.91815      58809.969    
    519000   99.647985      58762.54     
    520000   99.483075      58786.493    
    521000   101.53646      58814.448    
    522000   101.0625       58780.747    
    523000   102.79801      58820.363    
    524000   98.939291      58752.474    
    525000   100.20639      58758.636    
    526000   99.737368      58822.369    
    527000   100.13117      58811.959    
    528000   100.32837      58802.253    
    529000   99.915864      58789.365    
    530000   99.102909      58818.755    
    531000   96.806755      58774.006    
    532000   100.07048      58775.013    
    533000   101.24367      58827.174    
    534000   97.870318      58760.304    
    535000   96.558331      58755.313    
    536000   100.32816      58847.134    
    537000   98.802733      58817.138    
    538000   98.223294      58776.392    
    539000   102.53254      58818.065    
    540000   98.532992      58802.506    
    541000   101.99678      58756.306    
    542000   101.48155      58798.269    
    543000   98.314917      58863.548    
    544000   101.44673      58726.639    
    545000   99.756027      58828.645    
    546000   101.57285      58852.831    
    547000   99.741319      58754.664    
    548000   99.82039       58773.562    
    549000   101.87626      58848.204    
    550000   102.30249      58821.29     
    551000   100.11395      58740.657    
    552000   99.941065      58828.309    
    553000   97.589638      58843.252    
    554000   100.63539      58682.151    
    555000   101.65558      58804.372    
    556000   98.338327      58826.188    
    557000   100.462        58704.635    
    558000   99.239256      58815.521    
    559000   102.13362      58874.277    
    560000   96.671844      58723.771    
    561000   99.127523      58803.912    
    562000   99.182012      58879.947    
    563000   102.96234      58743.143    
    564000   98.64229       58768.343    
    565000   99.739579      58843.625    
    566000   99.851444      58834.712    
    567000   98.95125       58716.543    
    568000   100.79546      58822.929    
    569000   103.20347      58831.137    
    570000   99.212881      58723.941    
    571000   101.06771      58797.148    
    572000   99.5922        58877.389    
    573000   98.621101      58737.024    
    574000   101.37647      58769.105    
    575000   100.36305      58829.925    
    576000   100.1145       58818.7      
    577000   100.09366      58769.187    
    578000   102.10769      58791.139    
    579000   97.792306      58812.664    
    580000   102.54755      58763.824    
    581000   100.26121      58796.695    
    582000   100.52578      58820.024    
    583000   100.22104      58740.791    
    584000   100.85194      58807.693    
    585000   100.98652      58836.707    
    586000   99.037992      58769.271    
    587000   99.460614      58774.028    
    588000   102.59664      58814.937    
    589000   99.973317      58787.083    
    590000   99.197079      58756.891    
    591000   101.05898      58796.732    
    592000   101.05327      58777.573    
    593000   98.090917      58767.816    
    594000   101.37421      58843.854    
    595000   100.37327      58798.455    
    596000   99.229886      58812.077    
    597000   99.261198      58808.27     
    598000   98.201545      58803.545    
    599000   99.078342      58726.513    
    600000   98.786234      58795.139    
Loop time of 582.957 on 32 procs for 600000 steps with 3078 atoms

Performance: 88.926 ns/day, 0.270 hours/ns, 1029.236 timesteps/s, 3.168 Matom-step/s
87.1% CPU use with 32 MPI tasks x no OpenMP threads

MPI task timing breakdown:
Section |  min time  |  avg time  |  max time  |%varavg| %total
---------------------------------------------------------------
Pair    | 134.4      | 215.77     | 253.09     | 170.2 | 37.01
Bond    | 11.266     | 20.955     | 25.871     |  65.9 |  3.59
Neigh   | 9.8687     | 9.9247     | 9.9915     |   1.1 |  1.70
Comm    | 232.71     | 272.81     | 360.07     | 161.1 | 46.80
Output  | 0.02082    | 0.031546   | 0.11687    |   8.8 |  0.01
Modify  | 54.303     | 56.758     | 60.234     |  28.5 |  9.74
Other   |            | 6.708      |            |       |  1.15

Nlocal:        96.1875 ave         115 max          58 min
Histogram: 1 0 1 0 2 8 4 8 5 3
Nghost:        4483.56 ave        4636 max        4327 min
Histogram: 2 6 0 0 10 6 0 0 2 6
Neighs:        31444.8 ave       37874 max       19329 min
Histogram: 1 0 1 1 2 8 5 6 5 3

Total # of neighbors = 1006235
Ave neighs/atom = 326.91196
Ave special neighs/atom = 8.7017544
Neighbor list builds = 5237
Dangerous builds = 0

unfix           1

print "All done!"
All done!
clear
next t
jump in.UiO-66
#========================= List of variables =========================#
variable        t  index 100 200 300 400 500			# Temperature in Kelvin
variable        p  index 1			# Pressure in atm
variable        dt         equal 1.00
variable        pdamp      equal 1000*${dt}
variable        pdamp      equal 1000*1
variable        tdamp      equal 100*${dt}
variable        tdamp      equal 100*1
variable        s  index 1					# Time step
variable        k  index 10000				# snapshots interval
variable        d1 index 200000			# NVT time (200 ns)
variable        d2 index 200000			# NPT Equilibration time (400 ps)
variable        d3 index 600000			# NPT Production time (1 ns)

#========================== Force Field  =============================#



log             log.UiO-66 append
units           real
atom_style      full
boundary        p p p

pair_style      lj/cut 12.500
bond_style      harmonic
angle_style     hybrid cosine/periodic fourier
dihedral_style  harmonic
improper_style  fourier

pair_modify     tail yes mix arithmetic
dielectric      1.0
special_bonds   lj/coul 0.0 0.0 1.0
box tilt        large

The 'box' command has been removed and will be ignored

read_data       data.UiO-66
Reading data file ...
  triclinic box = (0 0 0) to (44.4522 38.496734 36.295069) with tilt (22.2261 22.2261 12.832245)
WARNING: Triclinic box skew is large. LAMMPS will run inefficiently. (../domain.cpp:220)
  4 by 2 by 4 MPI processor grid
  reading atoms ...
  3078 atoms
  scanning bonds ...
  4 = max bonds/atom
  scanning angles ...
  28 = max angles/atom
  scanning dihedrals ...
  8 = max dihedrals/atom
  scanning impropers ...
  3 = max impropers/atom
  reading bonds ...
  3996 bonds
  reading angles ...
  10044 angles
  reading dihedrals ...
  6480 dihedrals
  reading impropers ...
  4212 impropers
Finding 1-2 1-3 1-4 neighbors ...
  special bond factors lj:    0        0        1       
  special bond factors coul:  0        0        1       
     8 = max # of 1-2 neighbors
    21 = max # of 1-3 neighbors
    22 = max # of special neighbors
  special bonds CPU = 0.001 seconds
  read_data CPU = 0.320 seconds

#### Atom Groupings ####
group           fram     id   1:3078
3078 atoms in group fram
#### END Atom Groupings ####


#############################  Equilibration  ###################################
thermo_style 	custom step temp vol
minimize        0.0 1.0e-3 1000 1000
Generated 15 of 15 mixed pair_coeff terms from arithmetic mixing rule
Neighbor list info ...
  update: every = 1 steps, delay = 0 steps, check = yes
  max neighbors/atom: 2000, page size: 100000
  master list distance cutoff = 14.5
  ghost atom cutoff = 14.5
  binsize = 7.25, bins = 13 8 6
  1 neighbor lists, perpetual/occasional/extra = 1 0 0
  (1) pair lj/cut, perpetual
      attributes: half, newton on
      pair build: half/bin/newton/tri
      stencil: half/bin/3d/tri
      bin: standard
WARNING: Inconsistent image flags (../domain.cpp:815)
Per MPI rank memory allocation (min/avg/max) = 19.68 | 19.7 | 19.71 Mbytes
   Step          Temp          Volume    
         0   0              62110.464    
       154   0              62110.464    
Loop time of 0.291457 on 32 procs for 154 steps with 3078 atoms

89.7% CPU use with 32 MPI tasks x no OpenMP threads

Minimization stats:
  Stopping criterion = force tolerance
  Energy initial, next-to-last, final = 
      133471.746302883    82955.391963871   82955.3919638704
  Force two-norm initial, final = 11354.725 0.00088599017
  Force max component initial, final = 568.42651 3.2567526e-05
  Final line search alpha, max atom move = 1 3.2567526e-05
  Iterations, force evaluations = 154 301

MPI task timing breakdown:
Section |  min time  |  avg time  |  max time  |%varavg| %total
---------------------------------------------------------------
Pair    | 0.098684   | 0.13694    | 0.16091    |   4.0 | 46.98
Bond    | 0.0061373  | 0.0097017  | 0.012102   |   1.3 |  3.33
Neigh   | 0          | 0          | 0          |   0.0 |  0.00
Comm    | 0.11012    | 0.13508    | 0.17534    |   4.2 | 46.35
Output  | 0          | 0          | 0          |   0.0 |  0.00
Modify  | 0          | 0          | 0          |   0.0 |  0.00
Other   |            | 0.009737   |            |       |  3.34

Nlocal:        96.1875 ave         113 max          71 min
Histogram: 1 1 1 3 4 6 6 4 3 3
Nghost:        4470.84 ave        4612 max        4354 min
Histogram: 5 3 0 7 5 4 1 1 5 1
Neighs:        29361.7 ave       34427 max       22106 min
Histogram: 1 0 2 6 1 5 7 4 3 3

Total # of neighbors = 939573
Ave neighs/atom = 305.25439
Ave special neighs/atom = 8.7017544
Neighbor list builds = 0
Dangerous builds = 0
velocity        all create ${t} 331989 rot yes dist gaussian
velocity        all create 200 331989 rot yes dist gaussian

fix             1 all nvt temp ${t} ${t} ${tdamp}
fix             1 all nvt temp 200 ${t} ${tdamp}
fix             1 all nvt temp 200 200 ${tdamp}
fix             1 all nvt temp 200 200 100
thermo          1000
run             ${d1}
run             200000
Generated 15 of 15 mixed pair_coeff terms from arithmetic mixing rule
WARNING: Inconsistent image flags (../domain.cpp:815)
Per MPI rank memory allocation (min/avg/max) = 18.56 | 18.57 | 18.58 Mbytes
   Step          Temp          Volume    
       154   200            62110.464    
      1000   212.45349      62110.464    
      2000   200.146        62110.464    
      3000   197.81671      62110.464    
      4000   199.42218      62110.464    
      5000   200.35575      62110.464    
      6000   200.55685      62110.464    
      7000   198.33301      62110.464    
      8000   195.80659      62110.464    
      9000   200.57548      62110.464    
     10000   201.66621      62110.464    
     11000   199.87856      62110.464    
     12000   199.78478      62110.464    
     13000   200.22413      62110.464    
     14000   203.01567      62110.464    
     15000   198.02375      62110.464    
     16000   200.7325       62110.464    
     17000   197.36351      62110.464    
     18000   199.58194      62110.464    
     19000   200.83866      62110.464    
     20000   199.19819      62110.464    
     21000   198.04124      62110.464    
     22000   199.6          62110.464    
     23000   198.12603      62110.464    
     24000   199.40084      62110.464    
     25000   203.28115      62110.464    
     26000   199.773        62110.464    
     27000   195.29867      62110.464    
     28000   200.04384      62110.464    
     29000   202.54974      62110.464    
     30000   192.9494       62110.464    
     31000   203.33808      62110.464    
     32000   198.70186      62110.464    
     33000   197.58732      62110.464    
     34000   199.1931       62110.464    
     35000   199.6627       62110.464    
     36000   196.3644       62110.464    
     37000   202.86969      62110.464    
     38000   199.31581      62110.464    
     39000   198.60533      62110.464    
     40000   199.67067      62110.464    
     41000   194.27145      62110.464    
     42000   196.98081      62110.464    
     43000   204.3129       62110.464    
     44000   199.8902       62110.464    
     45000   202.65762      62110.464    
     46000   205.20389      62110.464    
     47000   197.08047      62110.464    
     48000   198.49543      62110.464    
     49000   200.49447      62110.464    
     50000   202.53921      62110.464    
     51000   199.69282      62110.464    
     52000   200.28736      62110.464    
     53000   201.02786      62110.464    
     54000   200.07244      62110.464    
     55000   194.59184      62110.464    
     56000   199.77104      62110.464    
     57000   200.89942      62110.464    
     58000   202.19465      62110.464    
     59000   199.50625      62110.464    
     60000   200.51232      62110.464    
     61000   202.78444      62110.464    
     62000   199.85942      62110.464    
     63000   196.83973      62110.464    
     64000   202.82031      62110.464    
     65000   196.80049      62110.464    
     66000   202.50205      62110.464    
     67000   198.39707      62110.464    
     68000   196.53077      62110.464    
     69000   198.96738      62110.464    
     70000   201.91584      62110.464    
     71000   200.43526      62110.464    
     72000   202.12357      62110.464    
     73000   201.58456      62110.464    
     74000   201.61426      62110.464    
     75000   199.06158      62110.464    
     76000   205.15377      62110.464    
     77000   200.92823      62110.464    
     78000   198.13295      62110.464    
     79000   201.32603      62110.464    
     80000   200.42144      62110.464    
     81000   198.10304      62110.464    
     82000   197.90072      62110.464    
     83000   202.79794      62110.464    
     84000   198.11623      62110.464    
     85000   198.62429      62110.464    
     86000   202.69164      62110.464    
     87000   198.56766      62110.464    
     88000   206.42813      62110.464    
     89000   196.97808      62110.464    
     90000   205.67349      62110.464    
     91000   198.30195      62110.464    
     92000   205.02726      62110.464    
     93000   204.0949       62110.464    
     94000   200.14708      62110.464    
     95000   197.34251      62110.464    
     96000   198.32486      62110.464    
     97000   204.20565      62110.464    
     98000   201.83118      62110.464    
     99000   196.63023      62110.464    
    100000   199.49967      62110.464    
    101000   198.85631      62110.464    
    102000   203.02745      62110.464    
    103000   203.22113      62110.464    
    104000   200.44344      62110.464    
    105000   199.41688      62110.464    
    106000   200.44583      62110.464    
    107000   199.45384      62110.464    
    108000   200.2946       62110.464    
    109000   204.08404      62110.464    
    110000   199.31379      62110.464    
    111000   207.6256       62110.464    
    112000   201.20286      62110.464    
    113000   198.766        62110.464    
    114000   197.63242      62110.464    
    115000   204.40663      62110.464    
    116000   197.44063      62110.464    
    117000   199.61963      62110.464    
    118000   197.26252      62110.464    
    119000   201.1891       62110.464    
    120000   200.30087      62110.464    
    121000   194.66521      62110.464    
    122000   197.37762      62110.464    
    123000   207.71699      62110.464    
    124000   199.11452      62110.464    
    125000   199.01711      62110.464    
    126000   205.93852      62110.464    
    127000   197.65458      62110.464    
    128000   198.79107      62110.464    
    129000   198.70906      62110.464    
    130000   198.9839       62110.464    
    131000   198.48935      62110.464    
    132000   202.90345      62110.464    
    133000   198.27647      62110.464    
    134000   196.71647      62110.464    
    135000   203.61951      62110.464    
    136000   207.01214      62110.464    
    137000   203.51964      62110.464    
    138000   203.12         62110.464    
    139000   195.86762      62110.464    
    140000   200.34148      62110.464    
    141000   198.45162      62110.464    
    142000   196.60719      62110.464    
    143000   203.80846      62110.464    
    144000   195.40811      62110.464    
    145000   200.91901      62110.464    
    146000   199.59731      62110.464    
    147000   198.97118      62110.464    
    148000   196.80385      62110.464    
    149000   199.51837      62110.464    
    150000   201.62288      62110.464    
    151000   199.97201      62110.464    
    152000   196.78471      62110.464    
    153000   202.99668      62110.464    
    154000   198.86382      62110.464    
    155000   203.9142       62110.464    
    156000   196.93444      62110.464    
    157000   204.50269      62110.464    
    158000   201.31092      62110.464    
    159000   202.79706      62110.464    
    160000   203.05151      62110.464    
    161000   198.84038      62110.464    
    162000   198.74344      62110.464    
    163000   197.95076      62110.464    
    164000   198.08192      62110.464    
    165000   204.39977      62110.464    
    166000   202.32244      62110.464    
    167000   199.99217      62110.464    
    168000   201.19419      62110.464    
    169000   202.29655      62110.464    
    170000   198.96583      62110.464    
    171000   199.10324      62110.464    
    172000   200.67428      62110.464    
    173000   201.27366      62110.464    
    174000   200.1231       62110.464    
    175000   202.14119      62110.464    
    176000   195.24076      62110.464    
    177000   199.01228      62110.464    
    178000   199.66983      62110.464    
    179000   199.78842      62110.464    
    180000   196.57121      62110.464    
    181000   200.60327      62110.464    
    182000   195.90087      62110.464    
    183000   202.38752      62110.464    
    184000   197.5946       62110.464    
    185000   203.50832      62110.464    
    186000   200.13276      62110.464    
    187000   195.55073      62110.464    
    188000   201.93081      62110.464    
    189000   201.37962      62110.464    
    190000   197.2987       62110.464    
    191000   203.2907       62110.464    
    192000   197.8456       62110.464    
    193000   202.14004      62110.464    
    194000   200.10042      62110.464    
    195000   202.1518       62110.464    
    196000   205.53632      62110.464    
    197000   197.99116      62110.464    
    198000   202.97348      62110.464    
    199000   196.25299      62110.464    
    200000   204.86127      62110.464    
    200154   201.74074      62110.464    
Loop time of 173.118 on 32 procs for 200000 steps with 3078 atoms

Performance: 99.816 ns/day, 0.240 hours/ns, 1155.280 timesteps/s, 3.556 Matom-step/s
86.3% CPU use with 32 MPI tasks x no OpenMP threads

MPI task timing breakdown:
Section |  min time  |  avg time  |  max time  |%varavg| %total
---------------------------------------------------------------
Pair    | 38.92      | 62.357     | 75.689     |  96.5 | 36.02
Bond    | 3.1331     | 5.7469     | 7.1282     |  34.9 |  3.32
Neigh   | 3.7336     | 3.7938     | 3.8383     |   1.3 |  2.19
Comm    | 75.678     | 89.647     | 114.8      |  84.9 | 51.78
Output  | 0.0049555  | 0.0064924  | 0.029599   |   5.2 |  0.00
Modify  | 7.1473     | 7.9596     | 8.6935     |  19.9 |  4.60
Other   |            | 3.608      |            |       |  2.08

Nlocal:        96.1875 ave         115 max          65 min
Histogram: 1 0 1 2 2 8 4 8 3 3
Nghost:        4393.19 ave        4625 max        4181 min
Histogram: 3 5 0 2 8 6 0 2 3 3
Neighs:        29607.1 ave       35483 max       20345 min
Histogram: 1 0 2 1 3 7 6 6 3 3

Total # of neighbors = 947428
Ave neighs/atom = 307.80637
Ave special neighs/atom = 8.7017544
Neighbor list builds = 2273
Dangerous builds = 0
unfix		1

fix             1 all npt temp ${t} ${t} ${tdamp} tri ${p} ${p} ${pdamp}
fix             1 all npt temp 200 ${t} ${tdamp} tri ${p} ${p} ${pdamp}
fix             1 all npt temp 200 200 ${tdamp} tri ${p} ${p} ${pdamp}
fix             1 all npt temp 200 200 100 tri ${p} ${p} ${pdamp}
fix             1 all npt temp 200 200 100 tri 1 ${p} ${pdamp}
fix             1 all npt temp 200 200 100 tri 1 1 ${pdamp}
fix             1 all npt temp 200 200 100 tri 1 1 1000
thermo          1000
run             ${d2}
run             200000
Generated 15 of 15 mixed pair_coeff terms from arithmetic mixing rule
WARNING: Inconsistent image flags (../domain.cpp:815)
Per MPI rank memory allocation (min/avg/max) = 18.57 | 18.59 | 18.6 Mbytes
   Step          Temp          Volume    
    200154   201.74074      62110.464    
    201000   199.96576      58820.809    
    202000   199.72186      58727.988    
    203000   196.58732      58690.221    
    204000   199.84903      58612.278    
    205000   196.8796       58763.481    
    206000   200.87427      58710.901    
    207000   198.95511      58616.392    
    208000   198.51166      58792.477    
    209000   199.30996      58788.212    
    210000   196.01683      58616.953    
    211000   205.6863       58769.858    
    212000   195.90458      58803.689    
    213000   201.6473       58710.69     
    214000   200.80337      58729.863    
    215000   205.56557      58748.154    
    216000   202.84591      58713.573    
    217000   198.79554      58702.805    
    218000   197.07762      58734.333    
    219000   200.2481       58689.2      
    220000   201.68868      58754.846    
    221000   195.18219      58727.455    
    222000   194.74779      58695.14     
    223000   198.62134      58726.341    
    224000   200.66935      58778.058    
    225000   205.15838      58713.207    
    226000   203.05951      58730.658    
    227000   198.77853      58707.429    
    228000   198.23552      58733.727    
    229000   198.1192       58732.927    
    230000   200.95895      58647.883    
    231000   201.56391      58755.604    
    232000   200.58042      58691.008    
    233000   190.02164      58689.936    
    234000   201.54201      58807.948    
    235000   198.64212      58710.767    
    236000   196.99265      58702.366    
    237000   198.20244      58787.879    
    238000   198.95555      58729.007    
    239000   201.23786      58687.613    
    240000   203.3034       58729.317    
    241000   200.58698      58795.993    
    242000   198.11739      58712.459    
    243000   198.20063      58652.139    
    244000   195.70573      58803.823    
    245000   204.12315      58691.08     
    246000   198.58278      58679.397    
    247000   199.92197      58694.926    
    248000   201.67829      58698.022    
    249000   194.97891      58703.005    
    250000   194.5096       58775.473    
    251000   201.05231      58731.588    
    252000   199.14352      58701.285    
    253000   201.26281      58719.984    
    254000   205.78266      58675.481    
    255000   198.74805      58750.731    
    256000   203.65509      58738.565    
    257000   197.7095       58703.767    
    258000   202.65594      58731.525    
    259000   201.79844      58708.199    
    260000   197.2706       58655.182    
    261000   198.24154      58837.587    
    262000   198.4125       58712.719    
    263000   200.37149      58627.647    
    264000   197.29215      58838.125    
    265000   198.96435      58752.175    
    266000   203.70486      58623.679    
    267000   196.24968      58749.511    
    268000   200.78121      58750.601    
    269000   206.08644      58678.886    
    270000   200.52516      58759.203    
    271000   195.94998      58752.494    
    272000   195.89946      58658.97     
    273000   201.15852      58744.086    
    274000   201.10239      58746.595    
    275000   196.92471      58716.461    
    276000   201.33549      58734.706    
    277000   197.61863      58694.879    
    278000   203.5987       58715.766    
    279000   200.30752      58735.486    
    280000   197.86656      58712.514    
    281000   202.5569       58739.169    
    282000   198.06032      58714.974    
    283000   196.46821      58730.291    
    284000   201.74704      58719.018    
    285000   191.77711      58738.827    
    286000   197.57465      58729.075    
    287000   202.52736      58701.427    
    288000   198.34105      58730.729    
    289000   199.09684      58751.721    
    290000   201.92482      58783.785    
    291000   195.74885      58662.111    
    292000   204.91397      58728.174    
    293000   202.97377      58802.481    
    294000   199.60701      58666.839    
    295000   202.11812      58737.587    
    296000   200.11167      58716.167    
    297000   197.49606      58732.153    
    298000   200.86778      58699.337    
    299000   198.64572      58728.688    
    300000   200.26172      58709.25     
    301000   202.34836      58728.575    
    302000   197.48081      58733.24     
    303000   199.13375      58688.693    
    304000   190.65275      58691.821    
    305000   205.35114      58783.591    
    306000   200.27647      58726.157    
    307000   200.88299      58652.906    
    308000   200.29772      58825.759    
    309000   202.06169      58804.994    
    310000   201.45124      58630.858    
    311000   198.85421      58787.665    
    312000   198.40108      58732.172    
    313000   201.9618       58627.628    
    314000   200.31136      58805.162    
    315000   200.90319      58695.648    
    316000   199.08827      58722.594    
    317000   197.53015      58747.542    
    318000   202.82027      58707.93     
    319000   200.29615      58723.364    
    320000   198.48198      58709.237    
    321000   195.72243      58781.241    
    322000   195.85087      58695.339    
    323000   198.36564      58702.629    
    324000   200.18377      58821.637    
    325000   197.64045      58637.57     
    326000   199.0702       58785.976    
    327000   204.46578      58720.55     
    328000   201.28975      58623.552    
    329000   197.64633      58759.476    
    330000   193.06746      58702.957    
    331000   196.0822       58720.893    
    332000   205.2118       58709.714    
    333000   196.48343      58711.526    
    334000   202.15659      58722.769    
    335000   193.53681      58761.746    
    336000   200.49729      58658.177    
    337000   200.20048      58794.197    
    338000   201.78471      58720.519    
    339000   202.49591      58645.298    
    340000   197.22493      58760.101    
    341000   201.74679      58715.418    
    342000   195.66593      58650.541    
    343000   199.96988      58800.707    
    344000   201.47524      58654.646    
    345000   193.40136      58677.826    
    346000   200.74897      58740.781    
    347000   199.04426      58695.005    
    348000   200.339        58709.001    
    349000   197.04226      58855.38     
    350000   200.5783       58648.778    
    351000   198.36578      58658.308    
    352000   198.0594       58828.569    
    353000   195.38393      58704.505    
    354000   199.03008      58709.767    
    355000   206.41471      58827.842    
    356000   199.36615      58632.425    
    357000   201.10745      58737.239    
    358000   200.39445      58770.703    
    359000   200.9644       58651.543    
    360000   197.55745      58730.812    
    361000   198.19027      58673.351    
    362000   204.06859      58760.564    
    363000   197.56896      58715.486    
    364000   200.4123       58694.433    
    365000   198.54527      58697.883    
    366000   200.34009      58749.273    
    367000   199.6088       58717.18     
    368000   201.67162      58652.788    
    369000   197.98689      58757.04     
    370000   200.83243      58707.743    
    371000   205.26193      58671.635    
    372000   202.88989      58762.256    
    373000   195.33257      58739.807    
    374000   201.5941       58692.05     
    375000   202.6217       58746.073    
    376000   204.46185      58755.906    
    377000   200.60876      58678.358    
    378000   193.46982      58740.01     
    379000   199.82839      58705.575    
    380000   199.15912      58608.547    
    381000   201.42394      58782.436    
    382000   201.70738      58626.603    
    383000   197.67538      58752.694    
    384000   197.5107       58729.594    
    385000   196.44377      58567.49     
    386000   201.54215      58743.416    
    387000   197.67719      58812.03     
    388000   200.32267      58577.735    
    389000   200.6109       58736.87     
    390000   194.60021      58699.651    
    391000   204.54442      58690.795    
    392000   202.48923      58757.179    
    393000   199.33101      58670.473    
    394000   205.82756      58722.725    
    395000   202.91141      58748.794    
    396000   205.50784      58652.347    
    397000   199.69388      58754.578    
    398000   201.45475      58765.078    
    399000   203.00394      58677.688    
    400000   199.49088      58767.223    
    400154   198.50938      58686.259    
Loop time of 199.933 on 32 procs for 200000 steps with 3078 atoms

Performance: 86.429 ns/day, 0.278 hours/ns, 1000.333 timesteps/s, 3.079 Matom-step/s
86.1% CPU use with 32 MPI tasks x no OpenMP threads

MPI task timing breakdown:
Section |  min time  |  avg time  |  max time  |%varavg| %total
---------------------------------------------------------------
Pair    | 45.386     | 71.941     | 84.74      |  98.9 | 35.98
Bond    | 3.7963     | 6.9803     | 8.5722     |  37.8 |  3.49
Neigh   | 5.3079     | 5.3608     | 5.4272     |   1.3 |  2.68
Comm    | 79.565     | 93.29      | 121.75     |  92.2 | 46.66
Output  | 0.028105   | 0.031662   | 0.063708   |   3.3 |  0.02
Modify  | 18.935     | 19.762     | 20.903     |  15.7 |  9.88
Other   |            | 2.568      |            |       |  1.28

Nlocal:        96.1875 ave         113 max          62 min
Histogram: 1 0 0 2 0 10 4 6 3 6
Nghost:        4484.09 ave        4638 max        4321 min
Histogram: 2 6 0 0 9 7 0 0 2 6
Neighs:        31539.2 ave       37235 max       20582 min
Histogram: 1 0 0 2 3 8 4 6 3 5

Total # of neighbors = 1009255
Ave neighs/atom = 327.89311
Ave special neighs/atom = 8.7017544
Neighbor list builds = 2744
Dangerous builds = 0

reset_timestep  0
#############################  Production ###################################
variable        V       equal vol 		    #Volume variable
variable        a	 	equal cella 		#Lattice variable
variable        b	 	equal cellb 		#Lattice variable
variable        c	 	equal cellc 		#Lattice variable
fix 			4 all ave/time 1 ${d3} ${d3} v_V v_a v_b v_c ave running file results_${t}.txt overwrite
fix 			4 all ave/time 1 600000 ${d3} v_V v_a v_b v_c ave running file results_${t}.txt overwrite
fix 			4 all ave/time 1 600000 600000 v_V v_a v_b v_c ave running file results_${t}.txt overwrite
fix 			4 all ave/time 1 600000 600000 v_V v_a v_b v_c ave running file results_200.txt overwrite
fix 			5 all ave/time 1 10000 10000 v_V v_a v_b v_c file summary_${t}.txt
fix 			5 all ave/time 1 10000 10000 v_V v_a v_b v_c file summary_200.txt
thermo          1000
run             ${d3}
run             600000
Generated 15 of 15 mixed pair_coeff terms from arithmetic mixing rule
WARNING: Inconsistent image flags (../domain.cpp:815)
Per MPI rank memory allocation (min/avg/max) = 18.57 | 18.59 | 18.6 Mbytes
   Step          Temp          Volume    
         0   198.50938      58686.259    
      1000   201.31111      58669.83     
      2000   203.12736      58819.254    
      3000   196.61156      58725.527    
      4000   199.48567      58621.127    
      5000   193.90145      58792.057    
      6000   205.35796      58742.752    
      7000   195.52236      58617.979    
      8000   207.7288       58795.546    
      9000   202.20896      58691.311    
     10000   200.1715       58703.073    
     11000   203.5112       58808.78     
     12000   197.6314       58641.365    
     13000   196.58764      58712.074    
     14000   202.01036      58798.5      
     15000   203.55527      58662.628    
     16000   201.07149      58789.398    
     17000   197.33114      58686.594    
     18000   201.86116      58687.75     
     19000   200.02055      58749.286    
     20000   201.41297      58671.751    
     21000   201.62952      58786.346    
     22000   199.81579      58752.257    
[...]
    157000   509.93         58557.71     
    158000   487.67734      58485.861    
    159000   497.03612      58524.967    
    160000   485.65162      58544.487    
    161000   494.97277      58529.957    
    162000   497.9682       58550.937    
    163000   490.58687      58376.869    
    164000   497.62329      58637.491    
    165000   501.78817      58482.732    
    166000   495.14546      58436.574    
    167000   519.86861      58628.781    
    168000   495.66865      58456.577    
    169000   504.44958      58584.291    
    170000   489.20356      58529.176    
    171000   507.46659      58713.574    
    172000   486.92841      58419.884    
    173000   484.07788      58558.947    
    174000   505.36244      58541.171    
    175000   507.01379      58409.389    
    176000   494.54829      58484.964    
    177000   501.28494      58687.491    
    178000   495.59936      58456.432    
    179000   504.50048      58547.775    
    180000   486.14631      58422.793    
    181000   508.87183      58605.173    
    182000   504.68599      58528.116    
    183000   495.7668       58441.463    
    184000   504.9535       58562.033    
    185000   497.75985      58482.494    
    186000   496.60758      58505.792    
    187000   500.44134      58538.829    
    188000   500.54663      58353.543    
    189000   498.81569      58632.311    
    190000   487.50408      58393.828    
    191000   505.19943      58471.08     
    192000   493.94269      58708.69     
    193000   504.04978      58363.461    
    194000   505.85581      58682.862    
    195000   506.4745       58600.893    
    196000   495.68562      58413.952    
    197000   486.6217       58484.606    
    198000   503.78422      58559.289    
    199000   484.66977      58403.116    
    200000   514.71644      58575.945    
    201000   504.18249      58499.819    
    202000   514.48423      58475.447    
    203000   493.92316      58574.646    
    204000   492.76105      58447.393    
    205000   489.10247      58479.611    
    206000   504.72381      58549.024    
    207000   496.87219      58509.562    
    208000   497.76512      58467.616    
    209000   493.3025       58634.532    
    210000   501.06456      58297.269    
    211000   484.8919       58629.805    
    212000   499.072        58475.33     
    213000   511.2879       58464.131    
    214000   485.32035      58575.08     
    215000   501.17189      58594.59     
    216000   502.98228      58412.476    
    217000   493.43819      58637.994    
    218000   489.58646      58494.788    
    219000   483.60899      58495.293    
    220000   503.96288      58552.107    
    221000   498.65352      58543.494    
    222000   488.38251      58536.491    
    223000   508.68737      58548.546    
    224000   487.92716      58486.319    
    225000   507.32907      58569.317    
    226000   492.52564      58557.919    
    227000   514.61638      58548.617    
    228000   497.06981      58523.154    
    229000   485.59362      58393.67     
    230000   507.70728      58596.895    
    231000   492.3357       58439.369    
    232000   499.42198      58506.502    
    233000   501.45716      58662.752    
    234000   509.34761      58421.357    
    235000   502.10323      58556.357    
    236000   509.88218      58523.857    
    237000   502.36877      58486.692    
    238000   488.39261      58573.555    
    239000   494.1612       58512.85     
    240000   509.45816      58482.052    
    241000   497.92957      58519.116    
    242000   508.59601      58486.194    
    243000   495.17071      58645.391    
    244000   499.86284      58512.578    
    245000   498.61731      58475.493    
    246000   503.20346      58511.766    
    247000   502.82437      58557.023    
    248000   504.94035      58536.83     
    249000   501.84737      58466.426    
    250000   490.7806       58515.416    
    251000   500.42919      58505.972    
    252000   498.81447      58634.885    
    253000   497.21046      58573.214    
    254000   506.75734      58464.222    
    255000   490.25841      58644.796    
    256000   496.80147      58483.716    
    257000   496.91757      58473.731    
    258000   502.28529      58558.17     
    259000   503.7522       58432.798    
    260000   505.46121      58456.003    
    261000   507.05147      58540.899    
    262000   497.67604      58587.459    
    263000   514.45939      58496.195    
    264000   498.97254      58551.121    
    265000   499.24234      58587.747    
    266000   497.95878      58472.498    
    267000   506.42159      58548.911    
    268000   495.07352      58699.115    
    269000   509.23852      58474.195    
    270000   512.31393      58480.472    
    271000   499.39056      58599.606    
    272000   502.86235      58450.785    
    273000   493.54488      58471.676    
    274000   504.65573      58552.652    
    275000   506.65251      58484.002    
    276000   503.72365      58426.653    
    277000   501.39203      58595.654    
    278000   493.44903      58495.122    
    279000   505.84573      58393.77     
    280000   496.03252      58598.079    
    281000   489.49345      58515.417    
    282000   507.80983      58358.782    
    283000   503.79199      58632.772    
    284000   491.83226      58469.385    
    285000   508.24166      58521.142    
    286000   493.95735      58565.019    
    287000   500.75905      58495.067    
    288000   493.58889      58400.433    
    289000   512.56269      58544.064    
    290000   509.64568      58596.323    
    291000   505.52584      58521.978    
    292000   496.01016      58411.572    
    293000   499.57629      58545.229    
    294000   509.99053      58503.674    
    295000   512.45934      58533.641    
    296000   505.03105      58523.094    
    297000   500.25945      58644.071    
    298000   486.9064       58438.148    
    299000   503.80618      58639.02     
    300000   504.49814      58522.21     
    301000   496.31097      58472.46     
    302000   494.67548      58663.243    
    303000   499.07662      58519.518    
    304000   510.49278      58517.195    
    305000   495.09235      58417.135    
    306000   493.299        58558.072    
    307000   501.56992      58695.461    
    308000   498.40078      58359.928    
    309000   491.54694      58520.947    
    310000   496.35961      58641.725    
    311000   505.70425      58467.839    
    312000   503.40558      58497.071    
    313000   513.54869      58554.146    
    314000   500.11553      58389.301    
    315000   490.88942      58666.938    
    316000   511.13127      58508.039    
    317000   485.22807      58407.694    
    318000   501.94827      58647.372    
    319000   508.54782      58421.163    
    320000   490.05133      58539.971    
    321000   504.14914      58488.025    
    322000   499.73567      58546.183    
    323000   491.11957      58587.503    
    324000   497.01266      58447.057    
    325000   492.7634       58606.291    
    326000   501.41476      58509.453    
    327000   491.35595      58367.572    
    328000   499.217        58649.666    
    329000   505.11239      58419.112    
    330000   496.2903       58615.14     
    331000   503.63408      58545.492    
    332000   492.05466      58412.489    
    333000   509.66252      58444.065    
    334000   501.99148      58543.696    
    335000   513.24657      58559.807    
    336000   492.53183      58438.977    
    337000   506.31274      58552.255    
    338000   504.18991      58388.166    
    339000   495.59614      58484.696    
    340000   507.08461      58549.648    
    341000   496.61816      58428.763    
    342000   488.48027      58635.072    
    343000   504.56242      58411.755    
    344000   491.95283      58529.922    
    345000   496.31481      58460.348    
    346000   495.76571      58504.934    
    347000   492.68548      58477.433    
    348000   507.63038      58510.336    
    349000   498.12475      58466.751    
    350000   513.36593      58517.448    
    351000   495.38478      58474.497    
    352000   513.56036      58440.059    
    353000   493.98476      58550.07     
    354000   503.07556      58497.75     
    355000   510.26058      58548.175    
    356000   504.17827      58429.239    
    357000   499.86945      58600.615    
    358000   506.77602      58468.863    
    359000   508.91135      58504.076    
    360000   504.83518      58641.437    
    361000   511.14196      58330.952    
    362000   500.37344      58576.476    
    363000   509.3488       58436.434    
    364000   493.81973      58584.707    
    365000   515.08363      58536.798    
    366000   498.28694      58432.566    
    367000   495.00658      58552.014    
    368000   494.55256      58491.944    
    369000   509.31603      58435.189    
    370000   486.09813      58605.693    
    371000   495.20738      58546.424    
    372000   502.39746      58580.538    
    373000   509.23917      58527.527    
    374000   487.60772      58528.386    
    375000   489.95584      58570.994    
    376000   493.80259      58383.035    
    377000   498.35735      58477.364    
    378000   487.15775      58771.993    
    379000   503.50882      58492.219    
    380000   494.90788      58513.057    
    381000   487.93635      58725.977    
    382000   491.86466      58506.138    
    383000   503.93131      58434.094    
    384000   496.37728      58723.868    
    385000   499.7424       58526.949    
    386000   500.1854       58330.679    
    387000   508.05394      58507.254    
    388000   499.81988      58522.011    
    389000   498.17783      58411.152    
    390000   502.42829      58637.286    
    391000   506.9954       58445.572    
    392000   499.42544      58558.995    
    393000   492.21979      58704.828    
    394000   507.39253      58442.191    
    395000   507.36733      58503.754    
    396000   490.24037      58557.187    
    397000   504.58156      58407.392    
    398000   505.36609      58481.971    
    399000   495.25209      58708.333    
    400000   495.40969      58486.094    
    401000   490.04459      58509.75     
    402000   503.4762       58739.679    
    403000   503.18472      58340.121    
    404000   499.24131      58533.541    
    405000   513.71504      58602.873    
    406000   492.75698      58454.911    
    407000   499.29934      58589.736    
    408000   508.14198      58386.164    
    409000   483.8972       58535.268    
    410000   500.99946      58578.232    
    411000   495.5236       58518.884    
    412000   507.52008      58546.499    
    413000   493.56831      58521.772    
    414000   506.32133      58510.663    
    415000   495.7796       58518.587    
    416000   504.91668      58539.696    
    417000   493.97445      58588.79     
    418000   500.49401      58501.188    
    419000   505.65115      58513.537    
    420000   502.15029      58556.032    
    421000   494.74194      58595.03     
    422000   502.65379      58473.048    
    423000   493.19292      58441.042    
    424000   504.99675      58504.368    
    425000   504.4704       58489.301    
    426000   500.43544      58443.309    
    427000   497.63593      58570.412    
    428000   503.07132      58558.893    
    429000   506.79333      58428.769    
    430000   524.33729      58576.632    
    431000   507.32111      58375.289    
    432000   509.34151      58526.589    
    433000   503.36531      58492.795    
    434000   496.71583      58535.889    
    435000   491.40065      58546.998    
    436000   498.29176      58515.793    
    437000   506.43567      58586.579    
    438000   503.72887      58560.505    
    439000   516.96443      58489.73     
    440000   499.30744      58472.724    
    441000   501.00194      58673.613    
    442000   497.96339      58329.598    
    443000   492.10818      58533.059    
    444000   490.62619      58652.992    
    445000   496.39752      58406.83     
    446000   494.23633      58623.028    
    447000   513.64803      58439.311    
    448000   502.52644      58541.201    
    449000   506.50689      58498.368    
    450000   501.52787      58490.257    
    451000   508.37407      58551.857    
    452000   499.87361      58587.332    
    453000   514.90696      58548.779    
    454000   495.21778      58513.398    
    455000   503.81666      58619.292    
    456000   494.41297      58487.029    
    457000   500.40301      58626.844    
    458000   499.7258       58455.755    
    459000   491.80909      58524.463    
    460000   501.21244      58593.13     
    461000   502.77852      58431.315    
    462000   489.0877       58532.152    
    463000   496.87256      58541.854    
    464000   502.80113      58433.823    
    465000   510.40941      58662.353    
    466000   488.01903      58634.948    
    467000   497.38459      58366.307    
    468000   487.06087      58726.996    
    469000   495.23741      58456.547    
    470000   509.31354      58563.839    
    471000   500.10507      58479.887    
    472000   495.55433      58565.092    
    473000   514.54445      58652.475    
    474000   503.69522      58381.871    
    475000   490.94096      58561.89     
    476000   493.93759      58612.368    
    477000   505.12834      58504.67     
    478000   485.88789      58352.46     
    479000   507.61031      58613.456    
    480000   492.72869      58540.353    
    481000   492.27777      58379.361    
    482000   512.69659      58662.143    
    483000   508.77241      58530.535    
    484000   497.71017      58425.043    
    485000   501.01422      58721.065    
    486000   499.38925      58450.123    
    487000   496.89768      58507.561    
    488000   501.15659      58633.674    
    489000   487.46838      58514.481    
    490000   522.89322      58535.112    
    491000   496.79369      58571.999    
    492000   498.74969      58409.307    
    493000   502.77801      58499.311    
    494000   502.52519      58647.824    
    495000   486.56847      58314.988    
    496000   506.36047      58511.667    
    497000   495.2724       58684.113    
    498000   492.54456      58358.184    
    499000   498.8876       58601.032    
    500000   501.63105      58559.962    
    501000   483.82057      58460.238    
    502000   500.95006      58454.018    
    503000   506.67406      58638.69     
    504000   501.34934      58482.397    
    505000   494.05531      58525.951    
    506000   493.21126      58565.746    
    507000   505.47907      58475.868    
    508000   498.23712      58579.64     
    509000   500.96712      58529.641    
    510000   487.55101      58446.433    
    511000   511.32         58526.331    
    512000   495.85957      58387.229    
    513000   495.41505      58526.653    
    514000   501.74466      58569.43     
    515000   502.9521       58522.496    
    516000   498.41947      58513.263    
    517000   499.03293      58561.793    
    518000   499.50766      58452.6      
    519000   501.74598      58408.425    
    520000   504.54544      58611.517    
    521000   506.47885      58562.204    
    522000   490.75657      58479.391    
    523000   500.51944      58512.383    
    524000   498.91734      58565.889    
    525000   502.08292      58512.54     
    526000   514.10439      58413.866    
    527000   502.74337      58637.974    
    528000   490.06846      58391.626    
    529000   496.13998      58563.878    
    530000   486.1085       58653.062    
    531000   502.15172      58353.87     
    532000   496.32136      58635.298    
    533000   490.19004      58540.046    
    534000   499.98786      58501.769    
    535000   509.96399      58384.995    
    536000   494.28181      58559.414    
    537000   513.61247      58582.99     
    538000   501.64725      58431.726    
    539000   493.22172      58455.557    
    540000   509.23202      58558.225    
    541000   491.88346      58487.509    
    542000   501.77448      58462.744    
    543000   499.24075      58625.103    
    544000   507.88034      58462.068    
    545000   491.13952      58522.258    
    546000   497.68639      58628.427    
    547000   510.02084      58486.838    
    548000   495.74766      58551.936    
    549000   498.46579      58476.87     
    550000   503.58768      58530.228    
    551000   497.52992      58483.256    
    552000   481.4371       58499.016    
    553000   505.8555       58539.926    
    554000   496.67749      58613.157    
    555000   504.84317      58483.692    
    556000   513.55095      58544.326    
    557000   498.96939      58477.95     
    558000   500.52408      58518.623    
    559000   496.28072      58575.662    
    560000   497.40119      58511.823    
    561000   496.75094      58599.643    
    562000   505.80558      58537.08     
    563000   497.23266      58548.87     
    564000   498.10837      58493.593    
    565000   493.14281      58523.698    
    566000   506.11403      58547.253    
    567000   496.78094      58567.174    
    568000   494.49811      58338.726    
    569000   513.71487      58609.073    
    570000   499.38259      58449.05     
    571000   485.8226       58602.344    
    572000   498.42771      58709.372    
    573000   488.75655      58396.985    
    574000   490.80416      58636.57     
    575000   502.48285      58452.904    
    576000   489.4423       58472.454    
    577000   495.57985      58601.003    
    578000   498.84851      58651.431    
    579000   499.11388      58526.844    
    580000   488.79719      58421.523    
    581000   506.03244      58522.042    
    582000   497.87109      58482.5      
    583000   491.29803      58485.545    
    584000   504.3711       58494.221    
    585000   493.15327      58662.147    
    586000   508.44777      58347.605    
    587000   494.19799      58604.719    
    588000   512.61226      58579.662    
    589000   499.52064      58380.578    
    590000   505.86589      58546.699    
    591000   491.85918      58536.585    
    592000   499.40831      58545.358    
    593000   506.1986       58507.649    
    594000   500.33517      58510.47     
    595000   487.29007      58635.484    
    596000   498.77857      58437.738    
    597000   498.68517      58519.568    
    598000   506.72449      58629.18     
    599000   493.85976      58412.521    
    600000   516.30139      58623.456    
Loop time of 626.375 on 32 procs for 600000 steps with 3078 atoms

Performance: 82.762 ns/day, 0.290 hours/ns, 957.893 timesteps/s, 2.948 Matom-step/s
86.9% CPU use with 32 MPI tasks x no OpenMP threads

MPI task timing breakdown:
Section |  min time  |  avg time  |  max time  |%varavg| %total
---------------------------------------------------------------
Pair    | 149.04     | 221.05     | 262.08     | 166.6 | 35.29
Bond    | 11.957     | 20.97      | 25.851     |  63.8 |  3.35
Neigh   | 38.766     | 39.163     | 39.643     |   3.4 |  6.25
Comm    | 236.43     | 279.67     | 357.41     | 157.4 | 44.65
Output  | 0.019282   | 0.023881   | 0.095435   |   8.4 |  0.00
Modify  | 56.018     | 58.581     | 61.826     |  27.7 |  9.35
Other   |            | 6.916      |            |       |  1.10

Nlocal:        96.1875 ave         115 max          56 min
Histogram: 1 0 1 0 1 6 8 7 4 4
Nghost:        4481.16 ave        4639 max        4315 min
Histogram: 2 6 0 0 7 9 0 0 2 6
Neighs:        31644.2 ave       38022 max       18737 min
Histogram: 1 0 1 0 3 6 6 6 5 4

Total # of neighbors = 1012613
Ave neighs/atom = 328.98408
Ave special neighs/atom = 8.7017544
Neighbor list builds = 20159
Dangerous builds = 0

unfix           1

print "All done!"
All done!
clear
next t
jump in.UiO-66
Total wall time: 1:21:59
