LAMMPS (2 Aug 2023)

The 'box' command has been removed and will be ignored

Reading data file ...
  triclinic box = (0 0 0) to (25.667 26.152 26.07259) with tilt (0 -2.313157 0)
  3 by 4 by 4 MPI processor grid
  reading atoms ...
  1392 atoms
  scanning bonds ...
  6 = max bonds/atom
  scanning angles ...
  15 = max angles/atom
  scanning dihedrals ...
  18 = max dihedrals/atom
  scanning impropers ...
  2 = max impropers/atom
  reading bonds ...
  1584 bonds
  reading angles ...
  3216 angles
  reading dihedrals ...
  3480 dihedrals
  reading impropers ...
  1152 impropers
Finding 1-2 1-3 1-4 neighbors ...
  special bond factors lj:    0        0        1       
  special bond factors coul:  0        0        1       
     6 = max # of 1-2 neighbors
    11 = max # of 1-3 neighbors
    17 = max # of special neighbors
  special bonds CPU = 0.257 seconds
  read_data CPU = 0.947 seconds
1392 atoms in group fram
Generated 15 of 15 mixed pair_coeff terms from arithmetic mixing rule
Neighbor list info ...
  update: every = 1 steps, delay = 0 steps, check = yes
  max neighbors/atom: 2000, page size: 100000
  master list distance cutoff = 14.5
  ghost atom cutoff = 14.5
  binsize = 7.25, bins = 4 4 4
  1 neighbor lists, perpetual/occasional/extra = 1 0 0
  (1) pair lj/cut, perpetual
      attributes: half, newton on
      pair build: half/bin/newton/tri
      stencil: half/bin/3d/tri
      bin: standard
Setting up cg style minimization ...
  Unit style    : real
  Current step  : 0
WARNING: Inconsistent image flags (../domain.cpp:815)
Per MPI rank memory allocation (min/avg/max) = 18.98 | 18.99 | 18.99 Mbytes
   Step          Temp          Volume    
         0   0              17501.054    
       143   0              17501.054    
Loop time of 3.38514 on 48 procs for 143 steps with 1392 atoms

97.1% CPU use with 48 MPI tasks x no OpenMP threads

Minimization stats:
  Stopping criterion = linesearch alpha is zero
  Energy initial, next-to-last, final = 
      14969.0740795108   9391.29608638438   9391.29608638438
  Force two-norm initial, final = 3586.3197 0.69938738
  Force max component initial, final = 137.86189 0.043280035
  Final line search alpha, max atom move = 1.4901161e-08 6.4492278e-10
  Iterations, force evaluations = 143 340

MPI task timing breakdown:
Section |  min time  |  avg time  |  max time  |%varavg| %total
---------------------------------------------------------------
Pair    | 0.040199   | 0.061113   | 0.076359   |   5.2 |  1.81
Bond    | 0.0015344  | 0.0028053  | 0.0034441  |   1.0 |  0.08
Neigh   | 0          | 0          | 0          |   0.0 |  0.00
Comm    | 0.98307    | 1.1313     | 1.2693     |   5.6 | 33.42
Output  | 0          | 0          | 0          |   0.0 |  0.00
Modify  | 0          | 0          | 0          |   0.0 |  0.00
Other   |            | 2.19       |            |       | 64.69

Nlocal:             29 ave          35 max          20 min
Histogram: 8 8 0 0 0 0 0 0 24 8
Nghost:        3810.83 ave        3843 max        3749 min
Histogram: 16 0 0 0 0 0 0 0 0 32
Neighs:        14592.5 ave       17577 max       10150 min
Histogram: 8 8 0 0 0 0 0 12 12 8

Total # of neighbors = 700440
Ave neighs/atom = 503.18966
Ave special neighs/atom = 6.8965517
Neighbor list builds = 0
Dangerous builds = 0
Generated 15 of 15 mixed pair_coeff terms from arithmetic mixing rule
Setting up Verlet run ...
  Unit style    : real
  Current step  : 143
  Time step     : 1
WARNING: Inconsistent image flags (../domain.cpp:815)
Per MPI rank memory allocation (min/avg/max) = 17.86 | 17.86 | 17.86 Mbytes
   Step          Temp          Volume    
       143   100            17501.054    
      1000   102.63083      17501.054    
      2000   100.17148      17501.054    
      3000   98.63376       17501.054    
      4000   99.482918      17501.054    
      5000   101.5434       17501.054    
      6000   104.77729      17501.054    
      7000   98.665184      17501.054    
      8000   98.227524      17501.054    
      9000   101.60258      17501.054    
     10000   97.345332      17501.054    
     11000   102.33497      17501.054    
     12000   99.543218      17501.054    
     13000   99.846512      17501.054    
     14000   97.894803      17501.054    
     15000   101.62899      17501.054    
     16000   98.56299       17501.054    
     17000   101.62381      17501.054    
     18000   98.082185      17501.054    
     19000   101.00636      17501.054    
     20000   99.90473       17501.054    
     21000   101.28233      17501.054    
     22000   101.59473      17501.054    
     23000   99.368115      17501.054    
     24000   98.819319      17501.054    
     25000   97.459768      17501.054    
     26000   104.52896      17501.054    
     27000   102.97795      17501.054    
     28000   97.784507      17501.054    
     29000   95.78123       17501.054    
     30000   102.42804      17501.054    
     31000   95.587777      17501.054    
     32000   98.733836      17501.054    
     33000   103.74172      17501.054    
     34000   97.721195      17501.054    
     35000   96.277709      17501.054    
     36000   98.334988      17501.054    
     37000   101.08518      17501.054    
     38000   97.758866      17501.054    
     39000   101.70853      17501.054    
     40000   98.708315      17501.054    
     41000   105.25964      17501.054    
     42000   99.780272      17501.054    
     43000   102.98379      17501.054    
     44000   99.990312      17501.054    
     45000   98.250023      17501.054    
     46000   99.969808      17501.054    
     47000   100.6633       17501.054    
     48000   98.289687      17501.054    
     49000   99.723896      17501.054    
     50000   97.587671      17501.054    
     51000   101.7102       17501.054    
     52000   97.616169      17501.054    
     53000   102.31711      17501.054    
     54000   100.35663      17501.054    
     55000   99.306858      17501.054    
     56000   99.887946      17501.054    
     57000   99.349071      17501.054    
     58000   97.158241      17501.054    
     59000   96.832852      17501.054    
     60000   101.0891       17501.054    
     61000   101.01267      17501.054    
     62000   102.83797      17501.054    
     63000   100.91757      17501.054    
     64000   97.436239      17501.054    
     65000   97.451749      17501.054    
     66000   99.391611      17501.054    
     67000   101.13225      17501.054    
     68000   102.59253      17501.054    
     69000   99.883422      17501.054    
     70000   97.064608      17501.054    
     71000   99.716267      17501.054    
     72000   101.15546      17501.054    
     73000   100.30594      17501.054    
     74000   98.437806      17501.054    
     75000   103.06261      17501.054    
     76000   100.67836      17501.054    
     77000   100.22339      17501.054    
     78000   99.015519      17501.054    
     79000   102.02036      17501.054    
     80000   100.29016      17501.054    
     81000   101.02435      17501.054    
     82000   106.08737      17501.054    
     83000   100.93128      17501.054    
     84000   99.594219      17501.054    
     85000   97.026384      17501.054    
     86000   103.40903      17501.054    
     87000   100.3354       17501.054    
     88000   98.602322      17501.054    
     89000   103.75836      17501.054    
     90000   97.936816      17501.054    
     91000   100.8204       17501.054    
     92000   101.08191      17501.054    
     93000   99.135925      17501.054    
     94000   98.573505      17501.054    
     95000   99.929845      17501.054    
     96000   96.736229      17501.054    
     97000   102.53009      17501.054    
     98000   102.67851      17501.054    
     99000   100.32483      17501.054    
    100000   103.4688       17501.054    
    101000   98.930271      17501.054    
    102000   99.322737      17501.054    
    103000   98.923827      17501.054    
    104000   101.44653      17501.054    
    105000   100.45731      17501.054    
    106000   101.19899      17501.054    
    107000   101.67277      17501.054    
    108000   95.203492      17501.054    
    109000   101.59946      17501.054    
    110000   97.254721      17501.054    
    111000   100.00688      17501.054    
    112000   101.33089      17501.054    
    113000   97.137239      17501.054    
    114000   103.46686      17501.054    
    115000   97.75109       17501.054    
    116000   98.085057      17501.054    
    117000   103.87109      17501.054    
    118000   101.27282      17501.054    
    119000   100.45925      17501.054    
    120000   103.20181      17501.054    
    121000   96.267682      17501.054    
    122000   101.77738      17501.054    
    123000   103.04629      17501.054    
    124000   100.80843      17501.054    
    125000   100.34936      17501.054    
    126000   101.11831      17501.054    
    127000   97.321215      17501.054    
    128000   95.693148      17501.054    
    129000   101.78941      17501.054    
    130000   97.452474      17501.054    
    131000   106.31061      17501.054    
    132000   98.861631      17501.054    
    133000   98.520214      17501.054    
    134000   100.57981      17501.054    
    135000   98.946487      17501.054    
    136000   101.45144      17501.054    
    137000   101.97296      17501.054    
    138000   99.603262      17501.054    
    139000   103.33869      17501.054    
    140000   102.32849      17501.054    
    141000   99.731991      17501.054    
    142000   100.14401      17501.054    
    143000   99.318698      17501.054    
    144000   101.40855      17501.054    
    145000   97.160836      17501.054    
    146000   102.51405      17501.054    
    147000   101.72996      17501.054    
    148000   102.57973      17501.054    
    149000   96.938277      17501.054    
    150000   102.11596      17501.054    
    151000   96.872441      17501.054    
    152000   96.33803       17501.054    
    153000   103.6263       17501.054    
    154000   98.047498      17501.054    
    155000   102.69407      17501.054    
    156000   97.438585      17501.054    
    157000   102.49458      17501.054    
    158000   101.27862      17501.054    
    159000   99.56017       17501.054    
    160000   97.927535      17501.054    
    161000   99.681354      17501.054    
    162000   95.327629      17501.054    
    163000   99.289566      17501.054    
    164000   102.67086      17501.054    
    165000   99.057894      17501.054    
    166000   99.94688       17501.054    
    167000   99.453935      17501.054    
    168000   99.781982      17501.054    
    169000   99.518338      17501.054    
    170000   97.628433      17501.054    
    171000   100.83698      17501.054    
    172000   102.60958      17501.054    
    173000   100.56879      17501.054    
    174000   100.26553      17501.054    
    175000   100.99547      17501.054    
    176000   98.158772      17501.054    
    177000   102.43131      17501.054    
    178000   98.966209      17501.054    
    179000   100.06795      17501.054    
    180000   99.734149      17501.054    
    181000   96.466078      17501.054    
    182000   101.71173      17501.054    
    183000   101.14755      17501.054    
    184000   100.25154      17501.054    
    185000   101.98561      17501.054    
    186000   101.50861      17501.054    
    187000   97.485735      17501.054    
    188000   102.96163      17501.054    
    189000   99.418538      17501.054    
    190000   101.95679      17501.054    
    191000   95.95287       17501.054    
    192000   104.16591      17501.054    
    193000   98.520214      17501.054    
    194000   100.74465      17501.054    
    195000   99.317028      17501.054    
    196000   99.417728      17501.054    
    197000   99.939547      17501.054    
    198000   103.41832      17501.054    
    199000   98.250686      17501.054    
    200000   102.05408      17501.054    
    200143   102.66748      17501.054    
Loop time of 98.7207 on 48 procs for 200000 steps with 1392 atoms

Performance: 175.039 ns/day, 0.137 hours/ns, 2025.918 timesteps/s, 2.820 Matom-step/s
99.4% CPU use with 48 MPI tasks x no OpenMP threads

MPI task timing breakdown:
Section |  min time  |  avg time  |  max time  |%varavg| %total
---------------------------------------------------------------
Pair    | 13.739     | 21.927     | 27.821     | 104.6 | 22.21
Bond    | 0.74383    | 1.3409     | 1.6759     |  22.8 |  1.36
Neigh   | 0.67572    | 0.77567    | 0.88368    |   9.1 |  0.79
Comm    | 61.401     | 67.792     | 77.196     |  63.3 | 68.67
Output  | 0.0028765  | 0.0033819  | 0.018013   |   3.7 |  0.00
Modify  | 2.9057     | 3.9045     | 5.0403     |  22.7 |  3.96
Other   |            | 2.977      |            |       |  3.02

Nlocal:             29 ave          37 max          17 min
Histogram: 2 5 3 6 0 0 1 16 10 5
Nghost:        3835.25 ave        3882 max        3766 min
Histogram: 10 6 0 0 0 0 1 10 9 12
Neighs:        14558.7 ave       18597 max        8621 min
Histogram: 2 5 3 6 0 1 4 16 7 4

Total # of neighbors = 698818
Ave neighs/atom = 502.02443
Ave special neighs/atom = 6.8965517
Neighbor list builds = 1059
Dangerous builds = 0
Generated 15 of 15 mixed pair_coeff terms from arithmetic mixing rule
Setting up Verlet run ...
  Unit style    : real
  Current step  : 200143
  Time step     : 1
WARNING: Inconsistent image flags (../domain.cpp:815)
Per MPI rank memory allocation (min/avg/max) = 17.87 | 17.92 | 18.19 Mbytes
   Step          Temp          Volume    
    200143   102.66748      17501.054    
    201000   101.09886      18850.123    
    202000   101.98391      19459.176    
    203000   101.74097      19436.797    
    204000   104.92611      19355.506    
    205000   99.843242      19541.46     
    206000   96.607295      19296.318    
    207000   103.38969      19502.381    
    208000   101.78012      19449.741    
    209000   101.17705      19426.97     
    210000   98.205707      19305.21     
    211000   101.69606      19499.839    
    212000   99.198138      19354.695    
    213000   100.50756      19377.957    
    214000   102.70342      19528.146    
    215000   100.37374      19174.477    
    216000   97.808179      19573.141    
    217000   102.42976      19276.525    
    218000   97.395337      19493.79     
    219000   99.116146      19308.869    
    220000   98.877811      19502.343    
    221000   101.85918      19310.188    
    222000   98.842842      19427.519    
    223000   101.4096       19506.888    
    224000   97.324995      19370.631    
    225000   99.055503      19496.12     
    226000   101.96414      19277.59     
    227000   98.044667      19507.328    
    228000   103.29189      19288.482    
    229000   105.19002      19487.648    
    230000   102.89555      19303.007    
    231000   104.4321       19580.567    
    232000   100.02326      19322.604    
    233000   94.867436      19358.88     
    234000   100.18662      19490.388    
    235000   95.336353      19256.204    
    236000   100.27782      19554.132    
    237000   96.374447      19378.301    
    238000   96.736796      19484.255    
    239000   100.40676      19258.355    
    240000   98.158069      19565.179    
    241000   98.200502      19332.821    
    242000   99.98323       19410.493    
    243000   106.38926      19439.981    
    244000   99.007047      19307.454    
    245000   99.611241      19501.782    
    246000   101.99884      19319.465    
    247000   104.58867      19455.977    
    248000   101.01224      19317.862    
    249000   101.68677      19502.917    
    250000   102.8959       19304.607    
    251000   100.63457      19369.559    
    252000   96.720458      19409.979    
    253000   100.1055       19360.223    
    254000   97.22068       19365.054    
    255000   100.57976      19409.817    
    256000   97.004157      19330.332    
    257000   98.070079      19435.569    
    258000   100.51442      19275.949    
    259000   104.81824      19471.983    
    260000   97.940357      19418.588    
    261000   97.906997      19376.787    
    262000   99.755767      19382.589    
    263000   104.20901      19420.215    
    264000   100.48789      19385.988    
    265000   103.36363      19329.108    
    266000   99.793493      19384.178    
    267000   104.0803       19328.563    
    268000   98.708493      19469.047    
    269000   101.45029      19385.651    
    270000   100.00167      19396.625    
    271000   99.23545       19390.571    
    272000   95.706576      19420.319    
    273000   97.889704      19298.55     
    274000   95.03595       19457.615    
    275000   103.28765      19345.179    
    276000   98.84206       19370.308    
    277000   99.438447      19306.584    
    278000   100.45031      19455.156    
    279000   101.3097       19410.074    
    280000   99.288807      19233.902    
    281000   100.46794      19589.35     
    282000   97.332874      19306.462    
    283000   100.99525      19420.835    
    284000   102.83302      19349.397    
    285000   98.039643      19541.392    
    286000   99.053894      19171.559    
    287000   100.84944      19543.513    
    288000   101.86216      19359.892    
    289000   98.913187      19283.43     
    290000   96.157554      19484.52     
    291000   102.32347      19249.691    
    292000   99.298419      19501.043    
    293000   102.01758      19310.277    
    294000   99.139237      19497.251    
    295000   96.657106      19197.173    
    296000   99.489928      19502.123    
    297000   97.322882      19322.807    
    298000   99.014522      19310.332    
    299000   103.25916      19497.368    
    300000   96.05873       19326.248    
    301000   100.12753      19355.15     
    302000   98.831442      19324.298    
    303000   99.291669      19591.7      
    304000   98.147462      19204.22     
    305000   96.466671      19491.577    
    306000   100.67915      19271.091    
    307000   95.810553      19432.334    
    308000   97.676586      19339.131    
    309000   98.580105      19447.983    
    310000   101.80769      19259.992    
    311000   100.25967      19322.277    
    312000   99.250871      19535.485    
    313000   103.4444       19096.495    
    314000   97.870145      19622.724    
    315000   101.1665       19204.324    
    316000   99.743104      19486.567    
    317000   100.16128      19337.944    
    318000   100.87524      19363.698    
    319000   101.11504      19384.081    
    320000   103.21746      19367.358    
    321000   99.854755      19486.26     
    322000   101.95607      19278.56     
    323000   96.484606      19463.924    
    324000   97.743952      19279.515    
    325000   103.35266      19454.755    
    326000   101.45681      19331.684    
    327000   100.54178      19415.88     
    328000   102.60386      19357.776    
    329000   101.63745      19384.889    
    330000   102.00649      19451.509    
    331000   101.36375      19254.389    
    332000   102.48641      19461.899    
    333000   103.06889      19232.265    
    334000   101.02661      19489.663    
    335000   99.717843      19297.451    
    336000   102.42778      19441.353    
    337000   101.76793      19285.45     
    338000   99.430119      19472.75     
    339000   97.914706      19312.95     
    340000   101.19296      19367.347    
    341000   98.91602       19418.369    
    342000   101.2789       19279.496    
    343000   99.930565      19395.346    
    344000   97.148808      19421.195    
    345000   103.63134      19350.066    
    346000   98.787758      19335.778    
    347000   102.68595      19443.416    
    348000   98.347064      19273.312    
    349000   100.39406      19397.587    
    350000   98.742462      19437.416    
    351000   101.38519      19299.074    
    352000   97.700824      19424.044    
    353000   103.6138       19334.72     
    354000   97.450588      19403.684    
    355000   103.83075      19371.516    
    356000   100.67588      19404.105    
    357000   101.52182      19256.67     
    358000   94.97877       19509.908    
    359000   98.134155      19333.621    
    360000   100.45972      19332.538    
    361000   103.02235      19572.794    
    362000   94.542872      19188.723    
    363000   101.29783      19476.609    
    364000   98.250657      19333.98     
    365000   100.41427      19439.947    
    366000   101.61252      19318.408    
    367000   96.061708      19494.16     
    368000   105.86082      19256.156    
    369000   102.12507      19377.161    
    370000   99.975019      19338.636    
    371000   99.198947      19285.694    
    372000   100.19276      19569.922    
    373000   101.88309      19185.913    
    374000   100.44866      19461.374    
    375000   96.245839      19295.823    
    376000   103.07256      19443.665    
    377000   100.70596      19283.406    
    378000   97.109831      19440.939    
    379000   102.33016      19332.273    
    380000   97.712381      19363.953    
    381000   100.26125      19527.316    
    382000   101.70927      19207.379    
    383000   100.52853      19519.242    
    384000   98.931186      19242.772    
    385000   100.91443      19553.836    
    386000   96.869278      19238.526    
    387000   101.39056      19435.42     
    388000   96.846919      19418.695    
    389000   102.46336      19341.422    
    390000   100.68303      19449.171    
    391000   98.172717      19232.88     
    392000   101.09643      19544.294    
    393000   101.80545      19133.787    
    394000   99.26084       19446.319    
    395000   101.19696      19329.305    
    396000   100.14715      19311.048    
    397000   98.502527      19417.449    
    398000   102.47382      19441.623    
    399000   103.11294      19353.037    
    400000   99.003702      19392.642    
    401000   95.107498      19556.365    
    402000   99.3262        19150.322    
    403000   100.53915      19490.384    
    404000   99.443177      19239.776    
    405000   100.73771      19511.384    
    406000   104.11571      19287.919    
    407000   99.712559      19461.38     
    408000   95.587288      19308.648    
    409000   100.66346      19344.65     
    410000   98.388561      19414.695    
    411000   101.53253      19292.819    
    412000   99.838403      19592.569    
    413000   101.15137      19148.892    
    414000   103.86942      19515.673    
    415000   99.045031      19330.088    
    416000   99.716777      19424.147    
    417000   97.546274      19404.166    
    418000   101.91464      19215.067    
    419000   100.53381      19576.677    
    420000   100.81488      19206.753    
    421000   97.278248      19519.608    
    422000   100.82195      19286.942    
    423000   98.773616      19480.5      
    424000   99.175758      19363.888    
    425000   100.7467       19447.277    
    426000   100.92916      19372.223    
    427000   102.61073      19283.537    
    428000   99.128956      19523.827    
    429000   101.34933      19218.316    
    430000   102.20645      19416.542    
    431000   99.837447      19317.861    
    432000   101.11613      19481.513    
    433000   100.01547      19368.599    
    434000   100.25699      19368.724    
    435000   99.612721      19438.006    
    436000   99.181666      19258.711    
    437000   100.90511      19545.213    
    438000   101.03381      19363.122    
    439000   96.641796      19387.646    
    440000   101.08208      19379.08     
    441000   99.820389      19246.608    
    442000   103.51324      19431.665    
    443000   96.877281      19281.555    
    444000   100.1313       19447.726    
    445000   98.776446      19379.592    
    446000   103.28931      19392.963    
    447000   99.25011       19340.335    
    448000   103.16585      19303.045    
    449000   101.32964      19491.191    
    450000   103.23915      19241.91     
    451000   95.92922       19447.849    
    452000   101.41861      19220.195    
    453000   97.970681      19390.443    
    454000   99.57049       19318.466    
    455000   98.416907      19646.771    
    456000   97.890851      19176.498    
    457000   103.48513      19468.273    
    458000   96.881501      19325.406    
    459000   99.721391      19365.873    
    460000   99.074714      19357.722    
    461000   102.85469      19349.642    
    462000   97.51879       19399.558    
    463000   100.46304      19287.56     
    464000   99.084667      19418.023    
    465000   99.918817      19304.264    
    466000   102.88627      19514.151    
    467000   97.460178      19125.551    
    468000   96.52757       19649.511    
    469000   104.14348      19242.659    
    470000   96.875527      19385.596    
    471000   100.98664      19380.853    
    472000   95.942104      19456.664    
    473000   101.02651      19317.857    
    474000   100.11002      19389.043    
    475000   101.55101      19538.124    
    476000   97.902551      19054.432    
    477000   102.5806       19542.268    
    478000   99.794593      19405.657    
    479000   99.006217      19339.626    
    480000   98.690861      19389.67     
    481000   97.163142      19448.917    
    482000   101.49544      19349.501    
    483000   93.99046       19338.735    
    484000   100.77067      19463.296    
    485000   99.106577      19296.643    
    486000   97.21908       19464.118    
    487000   100.55025      19326.287    
    488000   103.77275      19442.906    
    489000   100.40963      19343.671    
    490000   99.673531      19465.578    
    491000   99.599049      19351.047    
    492000   101.12558      19434.441    
    493000   97.434043      19332.275    
    494000   101.7805       19402.262    
    495000   100.45217      19411.87     
    496000   100.05904      19407.031    
    497000   101.24305      19349.465    
    498000   100.78118      19470.658    
    499000   100.50639      19263.184    
    500000   98.796077      19419.283    
    501000   99.873247      19331.081    
    502000   98.760295      19389.106    
    503000   100.5004       19509.345    
    504000   96.91013       19207.021    
    505000   97.169977      19464.211    
    506000   97.401873      19310.935    
    507000   99.216704      19470.634    
    508000   98.323419      19239.019    
    509000   98.102403      19542.948    
    510000   99.41376       19241.763    
    511000   100.69749      19416.385    
    512000   96.670917      19340.918    
    513000   102.64208      19366.849    
    514000   99.524383      19393.248    
    515000   98.455942      19434.03     
    516000   99.82449       19391.546    
    517000   101.79766      19351.89     
    518000   98.363146      19430.646    
    519000   99.898718      19360.242    
    520000   97.345248      19357.716    
    521000   102.43909      19345.476    
    522000   98.746692      19412.172    
    523000   98.191975      19361.079    
    524000   100.72355      19433.219    
    525000   98.778143      19353.629    
    526000   99.806932      19485.151    
    527000   98.018314      19375.66     
    528000   97.790425      19418.367    
    529000   100.97121      19357.492    
    530000   100.13827      19341.609    
    531000   100.67308      19281.06     
    532000   99.940617      19390.711    
    533000   95.976531      19309.206    
    534000   102.18974      19376.523    
    535000   98.748427      19435.371    
    536000   100.47737      19384.716    
    537000   103.42098      19355.726    
    538000   100.83185      19455.31     
    539000   98.708511      19411.247    
    540000   98.715683      19329.441    
    541000   99.349974      19490.529    
    542000   99.036925      19350.32     
    543000   100.56418      19402.447    
    544000   97.542464      19291.409    
    545000   96.488152      19474.615    
    546000   95.955336      19292.146    
    547000   104.26452      19401.934    
    548000   96.56322       19327.266    
    549000   97.473716      19465.189    
    550000   105.70806      19280.695    
    551000   100.98624      19493.622    
    552000   101.00754      19325.525    
    553000   101.60285      19420.396    
    554000   96.476669      19404.058    
    555000   99.248253      19308.263    
    556000   96.83411       19506.83     
    557000   104.8967       19344.548    
    558000   99.540092      19396.716    
    559000   105.82026      19399.991    
    560000   98.395747      19370.472    
    561000   99.530323      19521.083    
    562000   101.52629      19399.486    
    563000   99.410256      19445.782    
    564000   102.41372      19382.416    
    565000   97.976706      19382.558    
    566000   104.25947      19395.025    
    567000   102.67125      19409.884    
    568000   99.909676      19348.466    
    569000   104.59381      19451.765    
    570000   97.270935      19325.395    
    571000   101.19158      19459.131    
    572000   98.864363      19388.731    
    573000   98.036244      19491.876    
    574000   99.201216      19283.735    
    575000   99.589782      19451.726    
    576000   100.96309      19346.143    
    577000   96.709035      19306.806    
    578000   100.85467      19486.239    
    579000   100.27234      19306.135    
    580000   102.40289      19509.767    
    581000   97.720916      19294.138    
    582000   99.566665      19485.854    
    583000   100.78759      19274.855    
    584000   100.12868      19481.089    
    585000   99.77002       19322.241    
    586000   100.14905      19461.475    
    587000   101.58254      19316.895    
    588000   100.19914      19463.123    
    589000   103.02941      19326.117    
    590000   93.605433      19316.243    
    591000   103.08743      19476.582    
    592000   97.079137      19255.426    
    593000   100.41651      19520.828    
    594000   96.280856      19319.345    
    595000   99.138659      19420.448    
    596000   101.60105      19362.146    
    597000   93.097968      19401.615    
    598000   102.23589      19373.325    
    599000   95.032854      19372.839    
    600000   101.47164      19490.851    
    601000   97.229577      19194.794    
    602000   101.55995      19520.213    
    603000   97.71255       19288.408    
    604000   101.44542      19509.706    
    605000   100.5311       19330.295    
    606000   97.927371      19411.352    
    607000   97.270961      19310.309    
    608000   101.4592       19444.469    
    609000   100.88129      19438.682    
    610000   98.434674      19367.959    
    611000   100.91603      19471.178    
    612000   101.33119      19205.017    
    613000   99.064895      19514.33     
    614000   97.496703      19290.818    
    615000   100.47184      19410.523    
    616000   100.77546      19386.504    
    617000   97.899512      19415.393    
    618000   97.033917      19290.117    
    619000   98.841506      19478.476    
    620000   100.76434      19390.342    
    621000   97.943264      19403.549    
    622000   101.9333       19471.042    
    623000   103.54715      19343.843    
    624000   100.3165       19437.138    
    625000   101.30472      19356.905    
    626000   99.576035      19384.9      
    627000   102.12448      19370.663    
    628000   95.531149      19518.525    
    629000   100.63573      19295.754    
    630000   100.34049      19415.931    
    631000   97.875652      19415.361    
    632000   99.919475      19327.294    
    633000   98.806664      19412.324    
    634000   101.9827       19295.772    
    635000   102.33272      19438.739    
    636000   104.43155      19438.34     
    637000   99.825226      19420.309    
    638000   100.70723      19299.026    
    639000   99.799366      19419.937    
    640000   98.636663      19259.127    
    641000   101.40682      19394.386    
    642000   100.81373      19351.119    
    643000   101.03487      19398.798    
    644000   101.63161      19380.686    
    645000   101.1372       19379.674    
    646000   103.07773      19467.842    
    647000   99.378759      19275.638    
    648000   103.9518       19574.755    
    649000   100.51798      19189.385    
    650000   101.46947      19523.302    
    651000   101.03368      19221.455    
    652000   104.37439      19482.646    
    653000   100.08979      19351.671    
    654000   99.636341      19389.857    
    655000   100.15008      19488.971    
    656000   98.318447      19326.815    
    657000   100.05333      19572.587    
    658000   103.55821      19188.463    
    659000   97.330992      19444.303    
    660000   99.292354      19343.58     
    661000   98.071592      19447.644    
    662000   96.266385      19289.808    
    663000   100.74817      19404.01     
    664000   101.11395      19409.209    
    665000   98.495929      19369.032    
    666000   104.04983      19483.214    
    667000   99.253452      19301.501    
    668000   101.8463       19528.746    
    669000   97.900288      19311.862    
    670000   100.13775      19390.507    
    671000   101.9368       19378.559    
    672000   99.931827      19394.09     
    673000   99.524009      19418.095    
    674000   101.3784       19367.532    
    675000   102.28873      19487.728    
    676000   101.48109      19277.49     
    677000   103.22735      19469.849    
    678000   100.67976      19335.473    
    679000   100.11234      19416.631    
    680000   99.213735      19329.992    
    681000   102.83014      19514.491    
    682000   97.101887      19318.905    
    683000   100.23444      19486.005    
    684000   98.024045      19386.182    
    685000   101.69463      19317.714    
    686000   95.803999      19529.729    
    687000   100.37217      19299.834    
    688000   102.08775      19409.666    
    689000   100.28639      19403.673    
    690000   101.38312      19436.706    
    691000   98.668305      19396.654    
    692000   101.08355      19479.722    
    693000   97.430733      19251.496    
    694000   98.92874       19489.155    
    695000   99.615578      19436.587    
    696000   101.92793      19413.7      
    697000   97.3798        19308.569    
    698000   100.27988      19558.467    
    699000   98.329052      19298.418    
    700000   98.441545      19416.428    
    701000   98.846742      19398.187    
    702000   103.59826      19439.252    
    703000   99.53961       19389.204    
    704000   101.93564      19412.349    
    705000   100.86         19295.907    
    706000   100.34997      19415.379    
    707000   101.27715      19355.297    
    708000   99.298606      19323.168    
    709000   99.387392      19493.337    
    710000   98.761778      19322.181    
    711000   103.57621      19487.897    
    712000   100.8045       19323.026    
    713000   106.49744      19518.659    
    714000   101.82443      19317.719    
    715000   99.834212      19582.558    
    716000   100.32138      19307.554    
    717000   98.728313      19541.896    
    718000   101.52299      19264.532    
    719000   98.658405      19517.812    
    720000   99.306221      19295.995    
    721000   98.992153      19512.601    
    722000   98.943479      19397.123    
    723000   98.912066      19416.216    
    724000   100.0659       19490.041    
    725000   102.85215      19270.88     
    726000   100.24864      19457.743    
    727000   103.23954      19273.469    
    728000   99.102899      19591.895    
    729000   98.835767      19163.593    
    730000   99.658634      19524.362    
    731000   98.042799      19374.302    
    732000   100.16177      19413.586    
    733000   102.62894      19379.475    
    734000   99.168824      19338.342    
    735000   101.19132      19388.959    
    736000   103.7955       19282.958    
    737000   98.077429      19545.973    
    738000   99.39496       19190.057    
    739000   99.794684      19647.594    
    740000   98.831858      19270.437    
    741000   102.28854      19484.987    
    742000   103.85755      19272.391    
    743000   101.78378      19486.609    
    744000   99.249565      19352.645    
    745000   105.22884      19322.597    
    746000   98.025233      19480.159    
    747000   95.872082      19244.614    
    748000   101.46922      19512.789    
    749000   100.78984      19256.63     
    750000   100.88234      19591.99     
    751000   100.70079      19249.707    
    752000   99.708312      19465.383    
    753000   100.92215      19323.819    
    754000   96.754943      19580.415    
    755000   99.993157      19256.256    
    756000   95.621814      19423.35     
    757000   99.647425      19453.303    
    758000   101.05178      19252.488    
    759000   99.028831      19384.931    
    760000   99.712612      19374.055    
    761000   99.400141      19386.149    
    762000   98.695317      19400.86     
    763000   103.09264      19416.665    
    764000   98.174933      19321.624    
    765000   100.8943       19341.637    
    766000   96.094462      19355.004    
    767000   103.2557       19404.851    
    768000   99.899263      19335.807    
    769000   102.24856      19464.42     
    770000   97.152886      19256.432    
    771000   100.87784      19493.955    
    772000   98.040409      19424.171    
    773000   98.692048      19310.511    
    774000   98.571083      19432.239    
    775000   98.288964      19351.216    
    776000   99.829617      19405.258    
    777000   101.11738      19350.459    
    778000   99.457038      19497.308    
    779000   100.52593      19243.62     
    780000   99.202173      19363.705    
    781000   101.28454      19410.417    
    782000   102.47963      19235.89     
    783000   100.31014      19522.071    
    784000   104.30207      19345.047    
    785000   95.591713      19445.763    
    786000   101.8385       19310.47     
    787000   99.840557      19561.593    
    788000   96.181845      19265.843    
    789000   98.808779      19423.395    
    790000   101.59279      19367.523    
    791000   96.010079      19347.712    
    792000   101.27506      19487.07     
    793000   100.29197      19198.136    
    794000   99.09361       19489.289    
    795000   100.00826      19312.116    
    796000   99.581312      19491.106    
    797000   95.017828      19325.439    
    798000   99.82922       19337.34     
    799000   99.448363      19408.729    
    800000   99.94498       19315.248    
    801000   101.50728      19457.654    
    802000   100.21177      19239.554    
    803000   97.334742      19496.684    
    804000   100.93274      19149.815    
    805000   99.604181      19518.574    
    806000   99.929302      19278.986    
    807000   101.86967      19509.542    
    808000   100.87349      19378.255    
    809000   105.11206      19460.842    
    810000   98.20595       19421.004    
    811000   105.13103      19341.539    
    812000   99.177365      19536.399    
    813000   99.821804      19314.799    
    814000   100.06344      19477.525    
    815000   97.651353      19105.9      
    816000   98.113906      19573.855    
    817000   101.6364       19285.277    
    818000   97.450515      19385.562    
    819000   98.162087      19445.751    
    820000   99.649988      19391.744    
    821000   97.254296      19404.091    
    822000   100.22543      19439.856    
    823000   103.89278      19373.732    
    824000   98.059852      19295.7      
    825000   102.31205      19541.335    
    826000   99.934469      19375.968    
    827000   103.38542      19519.94     
    828000   103.4849       19352.017    
    829000   98.520207      19447.661    
    830000   101.42181      19342.013    
    831000   96.659494      19406.451    
    832000   100.27046      19453.158    
    833000   101.10958      19359.145    
    834000   98.039991      19491.47     
    835000   95.35692       19339.499    
    836000   99.505679      19401.372    
    837000   102.51159      19344.36     
    838000   97.423019      19459.872    
    839000   99.19451       19359.79     
    840000   100.35142      19291.584    
    841000   100.39112      19484.033    
    842000   97.465982      19345.611    
    843000   101.02088      19425.091    
    844000   98.138453      19320.683    
    845000   96.402054      19444.521    
    846000   98.117948      19331.921    
    847000   100.1782       19423.612    
    848000   98.315621      19317.663    
    849000   96.546052      19504.075    
    850000   102.0029       19314.768    
    851000   100.17109      19542.274    
    852000   100.38322      19354.272    
    853000   97.317954      19512.757    
    854000   100.75887      19267.017    
    855000   98.375777      19429.727    
    856000   100.36359      19328.083    
    857000   100.42711      19398.414    
    858000   102.95167      19453.812    
    859000   96.888716      19306.881    
    860000   100.16715      19407.991    
    861000   94.429975      19351.978    
    862000   103.94642      19446.762    
    863000   99.339585      19413.918    
    864000   96.664535      19451.235    
    865000   96.731148      19361.761    
    866000   102.24835      19396.771    
    867000   99.654667      19389.891    
    868000   103.86176      19279.376    
    869000   101.01874      19601.865    
    870000   93.674336      19202.021    
    871000   100.39374      19476.318    
    872000   95.856403      19324.973    
    873000   99.868481      19483.117    
    874000   101.08704      19242.52     
    875000   102.22725      19484.177    
    876000   99.65479       19333.179    
    877000   102.13267      19357.039    
    878000   99.734065      19372.98     
    879000   96.607419      19434.222    
    880000   100.96313      19331.201    
    881000   97.575604      19420.03     
    882000   97.576382      19475.748    
    883000   104.43325      19237.485    
    884000   96.872205      19393.198    
    885000   103.57         19369.265    
    886000   102.10621      19279.304    
    887000   105.40913      19446.156    
    888000   98.175669      19271.054    
    889000   100.16605      19442.735    
    890000   97.453453      19308.889    
    891000   98.292606      19531.523    
    892000   101.31876      19190.463    
    893000   99.576776      19522.366    
    894000   99.310278      19299.799    
    895000   98.870856      19423.813    
    896000   99.840717      19324.877    
    897000   95.225728      19331.833    
    898000   99.4044        19412.905    
    899000   100.67491      19275.222    
    900000   97.659237      19426.257    
    901000   99.601308      19326.323    
    902000   99.381087      19460.365    
    903000   98.203793      19255.672    
    904000   98.468799      19485.905    
    905000   101.12684      19299.934    
    906000   99.723484      19430.165    
    907000   102.03953      19320.292    
    908000   94.392447      19409.24     
    909000   102.81966      19345.215    
    910000   93.890527      19349.759    
    911000   101.36587      19417.363    
    912000   97.106681      19397.175    
    913000   94.888852      19441.734    
    914000   99.970436      19272.277    
    915000   96.949396      19470.659    
    916000   98.966664      19328.138    
    917000   99.551296      19530.449    
    918000   96.905749      19157.935    
    919000   100.78045      19530.007    
    920000   101.44846      19320.542    
    921000   103.60244      19599.951    
    922000   101.10223      19178.166    
    923000   100.89364      19481.012    
    924000   101.47056      19285.402    
    925000   100.16593      19389.552    
    926000   97.97798       19492.756    
    927000   99.425677      19314.053    
    928000   103.32548      19569.837    
    929000   95.287888      19233.833    
    930000   101.53925      19570.593    
    931000   97.768798      19298.421    
    932000   99.103041      19386.207    
    933000   99.939638      19388.809    
    934000   102.35922      19355.835    
    935000   98.966111      19457.512    
    936000   101.30082      19302.753    
    937000   97.915894      19532.411    
    938000   97.727015      19205.133    
    939000   100.50524      19586.669    
    940000   101.49875      19312.96     
    941000   99.209504      19450.217    
    942000   101.29304      19387.412    
    943000   100.72014      19300.414    
    944000   97.097451      19519.738    
    945000   101.29228      19272.245    
    946000   104.75288      19489.353    
    947000   100.10929      19323.704    
    948000   102.33843      19423.523    
    949000   101.1273       19396.068    
    950000   100.54148      19312.273    
    951000   98.894633      19422.469    
    952000   97.900383      19218.888    
    953000   96.505844      19479.564    
    954000   100.8203       19250.424    
    955000   98.80312       19536.027    
    956000   101.28697      19323.052    
    957000   102.43243      19473.926    
    958000   97.875392      19254.097    
    959000   98.595172      19472.018    
    960000   101.11367      19285.872    
    961000   98.800819      19484.243    
    962000   101.59028      19338.153    
    963000   100.19639      19344.031    
    964000   99.669303      19493.63     
    965000   97.807661      19220.257    
    966000   100.0518       19545.51     
    967000   93.703538      19288.784    
    968000   99.777037      19470.02     
    969000   94.938605      19298.872    
    970000   101.13846      19445.049    
    971000   95.410539      19306.703    
    972000   97.487535      19457.384    
    973000   103.24049      19331.448    
    974000   100.50428      19356.225    
    975000   101.07696      19347.914    
    976000   95.80432       19412.223    
    977000   100.71467      19267.804    
    978000   98.186429      19432.472    
    979000   97.932952      19470.564    
    980000   98.834443      19332.631    
    981000   100.05285      19337.96     
    982000   102.40145      19407.316    
    983000   100.3736       19393.237    
    984000   95.901941      19365.261    
    985000   99.801901      19351.346    
    986000   96.993475      19429.264    
    987000   101.05165      19397.581    
    988000   103.88671      19258.273    
    989000   101.61221      19450.461    
    990000   103.3526       19242.883    
    991000   98.429497      19476.837    
    992000   100.48135      19342.648    
    993000   97.661118      19376.577    
    994000   97.497097      19366.601    
    995000   101.96662      19315.741    
    996000   101.77765      19480.888    
    997000   99.436767      19226.217    
    998000   99.565287      19485.365    
    999000   97.739345      19218.242    
   1000000   100.94312      19522.72     
   1000143   100.21068      19447.749    
Loop time of 398.232 on 48 procs for 800000 steps with 1392 atoms

Performance: 173.567 ns/day, 0.138 hours/ns, 2008.879 timesteps/s, 2.796 Matom-step/s
99.5% CPU use with 48 MPI tasks x no OpenMP threads

MPI task timing breakdown:
Section |  min time  |  avg time  |  max time  |%varavg| %total
---------------------------------------------------------------
Pair    | 56.075     | 86.622     | 104.62     | 185.2 | 21.75
Bond    | 3.4889     | 7.0993     | 9.6179     |  58.7 |  1.78
Neigh   | 3.4103     | 3.9599     | 4.6104     |  22.7 |  0.99
Comm    | 242.57     | 263.66     | 300.06     | 115.3 | 66.21
Output  | 0.011322   | 0.012534   | 0.032502   |   2.6 |  0.00
Modify  | 26.853     | 30.762     | 33.52      |  31.1 |  7.72
Other   |            | 6.116      |            |       |  1.54

Nlocal:             29 ave          35 max          17 min
Histogram: 2 6 2 5 1 0 0 3 17 12
Nghost:        3601.31 ave        3654 max        3518 min
Histogram: 8 7 1 0 0 0 0 3 19 10
Neighs:        12947.6 ave       15661 max        7644 min
Histogram: 2 6 2 2 4 0 0 4 16 12

Total # of neighbors = 621485
Ave neighs/atom = 446.46911
Ave special neighs/atom = 6.8965517
Neighbor list builds = 5823
Dangerous builds = 0
Generated 15 of 15 mixed pair_coeff terms from arithmetic mixing rule
Setting up Verlet run ...
  Unit style    : real
  Current step  : 0
  Time step     : 1
WARNING: Inconsistent image flags (../domain.cpp:815)
Per MPI rank memory allocation (min/avg/max) = 17.88 | 17.92 | 18.19 Mbytes
   Step          Temp          Volume    
         0   100.21068      19447.749    
      1000   99.824372      19355.018    
      2000   102.79365      19367.488    
      3000   101.64712      19354.107    
      4000   95.411426      19388.773    
      5000   99.554385      19406.887    
      6000   99.757034      19321.773    
      7000   101.87187      19559.814    
      8000   101.78585      19129.089    
      9000   98.479496      19587.578    
     10000   102.6467       19279.704    
     11000   101.15771      19450.418    
     12000   98.801964      19267.318    
     13000   98.235447      19395.107    
     14000   99.778962      19470.274    
     15000   102.03072      19180.589    
     16000   98.388151      19593.405    
     17000   98.248526      19267.332    
     18000   96.951142      19414.321    
     19000   98.792334      19223.743    
     20000   98.315781      19489.091    
     21000   99.16568       19324.446    
     22000   97.538524      19421.728    
     23000   102.02949      19497.303    
     24000   98.996438      19260.224    
     25000   102.22208      19508.372    
     26000   101.74173      19153.119    
     27000   100.53935      19477.026    
     28000   96.994478      19242.924    
     29000   96.676884      19602.682    
     30000   101.18911      19276.822    
     31000   103.76685      19460.119    
     32000   100.58523      19387.106    
     33000   99.920338      19425.037    
     34000   98.447303      19337.251    
     35000   104.18773      19394.247    
     36000   99.468749      19475.35     
     37000   101.65432      19204.419    
     38000   102.12756      19640.269    
     39000   100.81704      19233.054    
     40000   98.37352       19495.278    
     41000   97.340621      19332.853    
     42000   102.52391      19468.346    
     43000   102.62934      19366.302    
     44000   101.29661      19315.053    
     45000   102.09913      19481.717    
     46000   98.783143      19340.511    
     47000   98.611272      19493.595    
     48000   100.02917      19320.124    
     49000   99.752987      19481.046    
     50000   99.845766      19262.89     
     51000   103.3407       19547.985    
     52000   98.604758      19282.022    
     53000   102.90276      19423.212    
     54000   95.926568      19468.335    
     55000   100.98905      19259.908    
     56000   101.2423       19501.909    
     57000   100.01056      19278.994    
     58000   98.662451      19517.634    
     59000   98.522033      19337.004    
     60000   98.069138      19446.072    
     61000   100.22639      19330.583    
     62000   98.419591      19411.861    
     63000   102.14742      19433.572    
     64000   98.944604      19256.852    
     65000   100.01364      19563.152    
     66000   104.41314      19217.11     
     67000   99.192367      19546.731    
     68000   96.707507      19221.645    
     69000   102.95007      19618.586    
     70000   99.195808      19323.733    
     71000   101.53117      19462.42     
     72000   104.592        19455.764    
     73000   98.907405      19321.029    
     74000   99.389806      19526.585    
     75000   100.833        19340.345    
     76000   102.72603      19444.174    
     77000   99.399853      19232.306    
     78000   104.12383      19702.192    
     79000   100.4169       19177.103    
     80000   97.957955      19480.099    
     81000   102.13921      19234.178    
     82000   99.182659      19495.64     
     83000   97.636751      19450.563    
     84000   99.032603      19255.152    
     85000   102.49074      19711.977    
     86000   103.11894      19221.15     
     87000   99.628577      19498.052    
     88000   98.382871      19187.612    
     89000   99.968375      19563.102    
     90000   103.09817      19297.43     
     91000   99.320674      19443.406    
     92000   100.84084      19395.811    
     93000   101.74913      19301.423    
     94000   98.349634      19627.23     
     95000   101.1756       19203.994    
     96000   100.53395      19568.204    
     97000   102.25558      19017.14     
     98000   102.02065      19484.867    
     99000   101.18679      19326.986    
    100000   103.30066      19340.646    
    101000   99.970445      19512.869    
    102000   100.33332      19210.245    
    103000   102.5738       19580.97     
    104000   99.601135      19225.485    
    105000   101.81437      19479.3      
    106000   99.978467      19272.969    
    107000   101.71944      19384.76     
    108000   102.81774      19439.405    
    109000   99.716998      19333.633    
    110000   100.3981       19552.891    
    111000   102.89804      19232.747    
    112000   100.85758      19515.381    
    113000   104.2796       19210.208    
    114000   99.838115      19447.09     
    115000   97.640111      19342.745    
    116000   97.074044      19362.181    
    117000   100.52891      19415.178    
    118000   99.834077      19266.319    
    119000   102.16461      19564.148    
    120000   98.92604       19185.703    
    121000   97.573864      19534.778    
    122000   99.90597       19316.986    
    123000   101.03467      19451.394    
    124000   96.405371      19371.937    
    125000   96.927468      19363.551    
    126000   101.27906      19431.418    
    127000   100.18309      19232.124    
    128000   97.027835      19647.783    
    129000   102.63555      19247.699    
    130000   103.05933      19573.957    
    131000   104.47438      19264.323    
    132000   98.949386      19500.079    
    133000   96.740685      19349.168    
    134000   102.72325      19379.264    
    135000   101.02886      19467.821    
    136000   99.078303      19178.523    
    137000   101.30328      19478.196    
    138000   95.914698      19296.557    
    139000   98.606599      19470.891    
    140000   100.52451      19267.355    
    141000   102.2337       19465.99     
    142000   102.96316      19430.327    
    143000   97.235588      19256.763    
    144000   99.724179      19490.396    
    145000   103.35317      19231.226    
    146000   99.862585      19540.456    
    147000   101.47853      19210.717    
    148000   99.24567       19441.697    
    149000   98.584742      19287.766    
    150000   100.47378      19413.355    
    151000   102.12827      19445.591    
    152000   97.701996      19196.11     
    153000   102.06055      19666.979    
    154000   100.24465      19260.963    
    155000   100.3814       19479.355    
    156000   95.991435      19242.2      
    157000   101.14517      19485.607    
    158000   100.92778      19298.862    
    159000   102.84283      19406.841    
    160000   100.93367      19356.799    
    161000   100.48608      19415.752    
    162000   99.640363      19401.097    
    163000   101.70296      19315.3      
    164000   101.71107      19420.069    
    165000   101.17379      19197.698    
    166000   100.35461      19481.948    
    167000   98.839117      19277.501    
    168000   101.20604      19536.933    
    169000   99.780307      19283.315    
    170000   98.85193       19385.462    
    171000   98.809201      19397.831    
    172000   93.169764      19304.245    
    173000   98.92343       19508.768    
    174000   105.93452      19216.295    
    175000   96.995128      19546.441    
    176000   105.25949      19255.136    
    177000   99.898548      19440.814    
    178000   96.832182      19316.279    
    179000   99.584599      19422.551    
    180000   102.38394      19435.054    
    181000   101.27695      19164.794    
    182000   99.558104      19599.395    
    183000   99.094503      19164.84     
    184000   99.727122      19393.915    
    185000   101.78825      19313.288    
    186000   99.446399      19390.318    
    187000   102.37082      19314.215    
    188000   102.61941      19492.887    
    189000   98.678628      19310.986    
    190000   98.387905      19383.828    
    191000   101.62319      19418.516    
    192000   99.443826      19293.615    
    193000   100.03021      19419.042    
    194000   98.940799      19360.347    
    195000   98.577102      19424.496    
    196000   102.09466      19351.804    
    197000   97.99816       19385.436    
    198000   98.757615      19308.684    
    199000   99.327131      19328.302    
    200000   99.840404      19397.512    
    201000   98.578783      19259.95     
    202000   97.235064      19416.359    
    203000   100.63312      19299.147    
    204000   98.577888      19348.9      
    205000   97.646713      19399.179    
    206000   101.12706      19359.193    
    207000   100.96143      19395.556    
    208000   97.762345      19294.128    
    209000   101.85713      19505.558    
    210000   95.574201      19255.241    
    211000   100.39423      19498.432    
    212000   100.56814      19269.127    
    213000   103.68782      19344.313    
    214000   100.69057      19448.749    
    215000   97.293799      19349.879    
    216000   100.7466       19428.387    
    217000   100.89957      19357.31     
    218000   100.81109      19476.084    
    219000   102.5033       19235.482    
    220000   100.98281      19574.166    
    221000   98.236009      19252.181    
    222000   100.65521      19354.899    
    223000   97.735667      19458.195    
    224000   101.71069      19285.813    
    225000   100.23641      19363.764    
    226000   100.51539      19402.089    
    227000   99.289179      19351.981    
    228000   97.732399      19339.592    
    229000   99.546157      19370.05     
    230000   103.6334       19327.459    
    231000   100.86965      19373.1      
    232000   99.154056      19454.9      
    233000   102.57985      19366.853    
    234000   101.0554       19404.85     
    235000   101.98687      19425.468    
    236000   99.945052      19261.898    
    237000   96.390832      19510.115    
    238000   101.15694      19247.198    
    239000   99.644821      19432.96     
    240000   98.55576       19212.704    
    241000   102.78274      19594.038    
    242000   100.75929      19236.472    
    243000   96.300083      19411.833    
    244000   101.50837      19381.682    
    245000   97.098245      19293.889    
    246000   101.27961      19445.177    
    247000   97.973007      19229.132    
    248000   100.28869      19581.91     
    249000   101.25024      19051.491    
    250000   99.423647      19496.363    
    251000   100.36724      19211.495    
    252000   99.761721      19418.279    
    253000   100.70217      19398.437    
    254000   102.02011      19396.918    
    255000   96.258229      19420.759    
    256000   98.633624      19191.254    
    257000   104.3855       19624.814    
    258000   101.14717      19099.508    
    259000   98.147421      19656.084    
    260000   100.8          19253.293    
    261000   97.975027      19419.814    
    262000   96.833019      19350.169    
    263000   99.083155      19344.193    
    264000   98.213076      19469.891    
    265000   98.315571      19184.135    
    266000   98.714752      19668.32     
    267000   101.6396       19155.622    
    268000   96.464197      19513.882    
    269000   99.656188      19363.336    
    270000   102.34923      19381.42     
    271000   98.122304      19474.354    
    272000   98.6249        19182.613    
    273000   98.072713      19570.809    
    274000   101.36504      19165.575    
    275000   97.190473      19477.319    
    276000   100.87792      19301.762    
    277000   100.73876      19446.14     
    278000   98.202052      19371.856    
    279000   98.415563      19432.087    
    280000   95.823932      19380.37     
    281000   101.68522      19363.789    
    282000   100.36523      19459.539    
    283000   99.604735      19231.887    
    284000   102.05818      19491.347    
    285000   99.942697      19338.728    
    286000   102.87893      19460.652    
    287000   97.045714      19339.721    
    288000   99.077147      19378.449    
    289000   100.83951      19449.12     
    290000   99.327226      19406.062    
    291000   102.31387      19376.462    
    292000   101.84236      19395.78     
    293000   103.55642      19420.897    
    294000   99.764201      19273.447    
    295000   98.150323      19497.882    
    296000   100.82968      19210.242    
    297000   96.476066      19492.222    
    298000   102.24517      19438.864    
    299000   96.599984      19331.836    
    300000   100.50143      19421.489    
    301000   103.30659      19268.636    
    302000   100.55178      19449.727    
    303000   99.924073      19320.775    
    304000   96.556485      19483.966    
    305000   101.13258      19216.361    
    306000   105.00691      19426.054    
    307000   96.739911      19420.837    
    308000   100.27282      19268.423    
    309000   100.67096      19440.583    
    310000   103.20699      19390.715    
    311000   99.168929      19476.009    
    312000   102.92861      19212.365    
    313000   100.69684      19499.576    
    314000   98.040277      19301.344    
    315000   98.286984      19443.78     
    316000   105.38991      19334.761    
    317000   100.37031      19414.734    
    318000   101.18818      19358.227    
    319000   99.088119      19371.169    
    320000   100.66033      19421.446    
    321000   99.832407      19278.147    
    322000   99.848484      19409.026    
    323000   98.745785      19287.122    
    324000   96.690621      19495.074    
    325000   101.19923      19286.263    
    326000   102.33594      19356.833    
    327000   100.78967      19456.019    
    328000   96.954756      19289.016    
    329000   100.88341      19509.522    
    330000   101.6757       19223.045    
    331000   103.33205      19526.551    
    332000   97.348988      19215.417    
    333000   102.00895      19490.221    
    334000   96.464577      19404.11     
    335000   98.51573       19381.245    
    336000   95.819691      19455.754    
    337000   98.594562      19368.541    
    338000   101.21641      19471.586    
    339000   98.305633      19387.26     
    340000   101.73085      19508.545    
    341000   103.20769      19342.576    
    342000   103.58835      19486.226    
    343000   98.052586      19383.621    
    344000   98.784838      19372.496    
    345000   103.98523      19420.724    
    346000   100.81035      19242.656    
    347000   101.06187      19580.444    
    348000   96.759479      19220.801    
    349000   101.87044      19601.484    
    350000   97.940977      19226.491    
    351000   104.03538      19525.959    
    352000   102.57175      19305.586    
    353000   98.017343      19436.176    
    354000   98.252573      19421.9      
    355000   100.63043      19228.035    
    356000   98.466994      19512.137    
    357000   102.13805      19261.39     
    358000   100.34223      19493.325    
    359000   98.270874      19289.855    
    360000   101.19452      19522.156    
    361000   99.1247        19327.903    
    362000   98.551743      19400.223    
    363000   99.819781      19414.793    
    364000   99.240925      19386.482    
    365000   99.160382      19376.509    
    366000   100.38274      19483.538    
    367000   97.15747       19324.265    
    368000   102.24337      19382.873    
    369000   101.4468       19456.284    
    370000   99.511904      19332.478    
    371000   100.82435      19536.891    
    372000   100.94739      19156.581    
    373000   96.319336      19614.905    
    374000   103.12588      19220.214    
    375000   96.22928       19475.52     
    376000   93.812254      19353.43     
    377000   102.53811      19337.553    
    378000   98.066771      19378.933    
    379000   100.38338      19346.089    
    380000   104.71972      19551.642    
    381000   98.119756      19096.194    
    382000   99.690512      19535.795    
    383000   101.79098      19322.453    
    384000   95.590017      19491.786    
    385000   99.756513      19319.499    
    386000   98.642334      19432.609    
    387000   99.46083       19264.655    
    388000   97.906541      19363.693    
    389000   99.638141      19430.783    
    390000   100.64528      19321.176    
    391000   102.39874      19373.937    
    392000   102.84628      19281.999    
    393000   97.170252      19576.697    
    394000   100.0156       19189.759    
    395000   100.60341      19528.979    
    396000   98.749427      19275.611    
    397000   99.624573      19390.044    
    398000   97.458928      19391.48     
    399000   98.432325      19403.08     
    400000   95.866714      19459.521    
    401000   101.20079      19285.98     
    402000   95.68019       19497.661    
    403000   104.79112      19324.39     
    404000   100.37575      19556.948    
    405000   97.678263      19248.77     
    406000   100.23259      19385.586    
    407000   97.887691      19436.892    
    408000   102.65753      19347.973    
    409000   100.15589      19385.581    
    410000   99.355458      19324.972    
    411000   94.916133      19460.88     
    412000   104.00167      19234.613    
    413000   102.61187      19474.49     
    414000   99.979802      19332.881    
    415000   94.785617      19328.839    
    416000   101.22739      19423.817    
    417000   99.956707      19316.871    
    418000   101.08491      19454.601    
    419000   99.390136      19281.374    
    420000   100.01182      19458.868    
    421000   97.660789      19180.642    
    422000   99.11297       19457.695    
    423000   98.703551      19278.629    
    424000   98.150387      19493.02     
    425000   100.03011      19322.582    
    426000   97.130757      19339.587    
    427000   99.930627      19507.888    
    428000   102.46732      19289.976    
    429000   99.812726      19494.572    
    430000   96.890038      19216.253    
    431000   99.407252      19500.124    
    432000   97.353266      19206.317    
    433000   98.866365      19468.563    
    434000   101.45638      19342.524    
    435000   97.666293      19346.363    
    436000   102.29271      19445.097    
    437000   97.619914      19232.28     
    438000   101.95273      19673.453    
    439000   102.31448      19250.935    
    440000   95.049951      19500.87     
    441000   100.81328      19311.128    
    442000   101.91767      19452.9      
    443000   101.93715      19333.307    
    444000   98.934485      19388.992    
    445000   101.443        19382.411    
    446000   102.01998      19258.893    
    447000   98.743406      19570.677    
    448000   101.58808      19319.412    
    449000   101.18415      19449.429    
    450000   99.942573      19293.76     
    451000   96.06385       19385.276    
    452000   100.61456      19380.259    
    453000   96.176527      19350.106    
    454000   97.743788      19423.123    
    455000   99.286845      19310.788    
    456000   100.47024      19452.597    
    457000   97.954477      19291.379    
    458000   102.86991      19408.868    
    459000   99.123039      19459.062    
    460000   101.63829      19347.928    
    461000   99.273556      19371.574    
    462000   98.873882      19376.809    
    463000   100.60044      19433.898    
    464000   100.68316      19324.03     
    465000   98.929736      19580.957    
    466000   100.03177      19319.985    
    467000   99.806843      19369.554    
    468000   100.11799      19441.787    
    469000   98.423524      19311.267    
    470000   101.50781      19410.278    
    471000   96.61908       19292.807    
    472000   94.601687      19509.911    
    473000   100.7092       19182.038    
    474000   99.690755      19461.846    
    475000   100.30579      19280.675    
    476000   96.91358       19419.544    
    477000   103.94208      19404.012    
    478000   99.263777      19245.115    
    479000   102.50857      19482.772    
    480000   97.869698      19156.846    
    481000   102.11616      19611.085    
    482000   96.092503      19243.799    
    483000   100.29663      19433.711    
    484000   98.957883      19297.071    
    485000   100.38115      19455.807    
    486000   99.029957      19415.682    
    487000   101.15038      19325.569    
    488000   95.467095      19472.57     
    489000   100.8705       19133.126    
    490000   99.935459      19564.784    
    491000   97.614684      19223.99     
    492000   102.503        19520.866    
    493000   102.22107      19301.638    
    494000   101.21057      19398.647    
    495000   101.04347      19413.762    
    496000   98.935681      19327.233    
    497000   95.815754      19449.999    
    498000   98.379738      19308.287    
    499000   101.03851      19496.842    
    500000   100.86446      19262.121    
    501000   102.50104      19393.788    
    502000   99.66582       19368.133    
    503000   100.29178      19413.032    
    504000   101.02701      19363.581    
    505000   99.256477      19411.876    
    506000   101.64282      19341.015    
    507000   98.999189      19338.547    
    508000   101.19201      19435.002    
    509000   100.44723      19282.669    
    510000   97.902557      19402.153    
    511000   99.423374      19308.551    
    512000   98.439869      19454.417    
    513000   99.840836      19342.728    
    514000   100.13532      19406.376    
    515000   98.411656      19301.078    
    516000   103.62362      19490.303    
    517000   99.984984      19266.002    
    518000   99.396588      19400.514    
    519000   99.397786      19401.359    
    520000   100.06778      19336.044    
    521000   100.29652      19351.094    
    522000   99.782988      19428.433    
    523000   101.56508      19289.672    
    524000   97.454127      19287.638    
    525000   97.276673      19572.409    
    526000   103.66491      19134.326    
    527000   99.171865      19407.551    
    528000   102.02172      19334.848    
    529000   100.86651      19461.615    
    530000   102.77386      19264.951    
    531000   101.18271      19568.263    
    532000   103.20179      19241.776    
    533000   99.476236      19331.867    
    534000   100.29256      19422.611    
    535000   100.59799      19234.144    
    536000   98.478197      19414.023    
    537000   98.085039      19260.837    
    538000   103.22368      19491.162    
    539000   99.587992      19267.49     
    540000   95.188509      19450.676    
    541000   101.11551      19223.328    
    542000   96.584854      19522.068    
    543000   100.25657      19391.676    
    544000   100.80439      19271.36     
    545000   100.55658      19546.443    
    546000   98.567801      19041.816    
    547000   97.426421      19585.721    
    548000   98.675776      19211.507    
    549000   103.17427      19584.265    
    550000   95.077722      19301.667    
    551000   99.35833       19351.445    
    552000   98.899025      19451.753    
    553000   99.628196      19146.459    
    554000   101.97996      19620.219    
    555000   97.593204      19188.378    
    556000   98.942367      19500.408    
    557000   100.11678      19401.328    
    558000   102.68867      19441.767    
    559000   99.061237      19304.017    
    560000   96.708557      19378.483    
    561000   98.687036      19499.715    
    562000   95.759302      19179.897    
    563000   104.36149      19474.459    
    564000   102.61865      19333.49     
    565000   99.194165      19407.108    
    566000   100.68958      19430.559    
    567000   99.19447       19374.279    
    568000   100.119        19416.062    
    569000   98.567273      19251.128    
    570000   101.64376      19548.035    
    571000   98.826397      19240.526    
    572000   98.409038      19583.282    
    573000   102.37124      19240.783    
    574000   100.46958      19471.82     
    575000   102.9369       19387.118    
    576000   95.534762      19442.788    
    577000   97.710057      19369.474    
    578000   102.50049      19464.413    
    579000   103.86191      19365.627    
    580000   93.983733      19330.411    
    581000   100.3349       19417.674    
    582000   103.56492      19348.663    
    583000   99.600234      19358.433    
    584000   99.474418      19430.773    
    585000   96.566235      19384.729    
    586000   97.22814       19358.876    
    587000   96.210658      19403.837    
    588000   102.83024      19361.682    
    589000   102.22696      19344.489    
    590000   98.173375      19419.402    
    591000   102.15938      19356.092    
    592000   101.81221      19377.56     
    593000   101.63922      19408.402    
    594000   97.264868      19379.39     
    595000   104.4785       19361.825    
    596000   100.37111      19398.179    
    597000   99.675801      19381.555    
    598000   99.720981      19405.946    
    599000   99.91296       19361.171    
    600000   101.45769      19452.967    
    601000   98.235156      19315.89     
    602000   100.5734       19375.742    
    603000   102.94066      19490.875    
    604000   100.19136      19215.396    
    605000   101.96237      19498.429    
    606000   101.43078      19402.549    
    607000   101.25974      19359.74     
    608000   100.05219      19422.542    
    609000   97.124757      19331.639    
    610000   99.619426      19410.229    
    611000   100.53015      19321.611    
    612000   101.18873      19447.713    
    613000   100.32628      19225.804    
    614000   95.941087      19527.931    
    615000   100.23605      19293.729    
    616000   97.550207      19500.395    
    617000   98.009246      19223.757    
    618000   100.61677      19439.771    
    619000   99.956227      19356.156    
    620000   100.39725      19306.832    
    621000   98.194113      19565.638    
    622000   99.339063      19177.034    
    623000   100.15924      19463.611    
    624000   100.45816      19290.294    
    625000   97.182901      19485.074    
    626000   101.47892      19338.887    
    627000   97.123446      19438.007    
    628000   99.254971      19324.089    
    629000   102.68513      19397.258    
    630000   96.153011      19392.984    
    631000   102.42151      19335.272    
    632000   100.02846      19386.118    
    633000   101.50118      19403.886    
    634000   100.48905      19283.026    
    635000   103.83551      19439.956    
    636000   100.11159      19409.563    
    637000   104.42015      19261.941    
    638000   99.419451      19509.402    
    639000   104.47571      19297.75     
    640000   100.15119      19522.619    
    641000   96.818065      19399.349    
    642000   100.61893      19393.973    
    643000   98.003788      19307.384    
    644000   101.50721      19375.85     
    645000   100.10927      19457.175    
    646000   98.149537      19286.877    
    647000   99.871708      19442.011    
    648000   102.05798      19337.934    
    649000   102.55947      19379.929    
    650000   102.40261      19372.942    
    651000   99.69774       19400.751    
    652000   96.511792      19434.642    
    653000   97.734355      19354.041    
    654000   102.08229      19408.435    
    655000   95.901216      19371.53     
    656000   97.795858      19409.218    
    657000   99.329723      19333.435    
    658000   101.60105      19339.289    
    659000   99.104975      19419.93     
    660000   100.73126      19439.759    
    661000   99.630596      19269.082    
    662000   99.392141      19440.369    
    663000   103.69201      19320.855    
    664000   100.48917      19348.375    
    665000   100.23328      19400.458    
    666000   102.28642      19320.669    
    667000   100.52686      19398.245    
    668000   102.1581       19259.668    
    669000   98.470685      19511.566    
    670000   97.419679      19265.035    
    671000   98.846972      19448.993    
    672000   102.6136       19408.991    
    673000   102.02043      19371.288    
    674000   97.28693       19517.909    
    675000   102.20414      19369.488    
    676000   98.515065      19458.161    
    677000   103.05064      19183.419    
    678000   100.17709      19614.899    
    679000   101.80624      19311.677    
    680000   105.15699      19408.723    
    681000   98.378123      19318.904    
    682000   102.01457      19402.383    
    683000   95.879913      19376.488    
    684000   97.896066      19357.35     
    685000   100.31946      19444.21     
    686000   97.752442      19236.517    
    687000   97.881941      19514.606    
    688000   98.618722      19320.395    
    689000   99.656212      19397.043    
    690000   98.955369      19470.183    
    691000   102.00005      19300.622    
    692000   102.87588      19399.603    
    693000   98.758785      19360.707    
    694000   102.16312      19436.631    
    695000   98.550864      19268.473    
    696000   103.17527      19528.849    
    697000   100.31318      19160.958    
    698000   100.41777      19502.715    
    699000   102.33066      19294.632    
    700000   93.450166      19372.334    
    701000   100.25796      19527.805    
    702000   96.909134      19310.911    
    703000   100.81579      19420.099    
    704000   99.385675      19276.547    
    705000   101.27625      19561.165    
    706000   101.34509      19290.565    
    707000   100.85219      19409.629    
    708000   101.58986      19307.11     
    709000   100.03468      19511.393    
    710000   95.928527      19320.326    
    711000   98.104308      19433.312    
    712000   100.67734      19401.194    
    713000   101.78585      19388.945    
    714000   100.02884      19385.869    
    715000   101.69722      19316.713    
    716000   99.013415      19488.449    
    717000   102.47313      19293.373    
    718000   98.369898      19483.168    
    719000   99.398738      19369.558    
    720000   103.1027       19461.06     
    721000   99.743135      19318.1      
    722000   101.66457      19365.247    
    723000   99.390146      19380.229    
    724000   100.74619      19388.479    
    725000   102.36676      19454.622    
    726000   99.972738      19313.029    
    727000   98.642914      19455.511    
    728000   98.089993      19335.651    
    729000   97.496591      19467.545    
    730000   102.30352      19383.185    
    731000   96.621656      19419.756    
    732000   99.325775      19489.716    
    733000   98.995984      19298.077    
    734000   98.418429      19490.335    
    735000   99.118743      19350.346    
    736000   98.879937      19481.921    
    737000   98.270113      19268.294    
    738000   99.239957      19481.652    
    739000   98.701477      19354.31     
[...]
    555000   513.92785      20210.569    
    556000   502.42412      20834.091    
    557000   501.32844      20786.56     
    558000   501.31038      19975.687    
    559000   490.97339      20772.179    
    560000   484.5768       20870.803    
    561000   513.64159      19916.098    
    562000   487.96862      20394.503    
    563000   507.32392      21022.936    
    564000   482.29744      20661.465    
    565000   495.52012      20121.836    
    566000   502.2069       20713.016    
    567000   503.53784      20748.543    
    568000   491.12663      20092.927    
    569000   504.42836      20291.086    
    570000   495.34716      20707.516    
    571000   475.21046      20880.13     
    572000   511.38377      20389.578    
    573000   511.48221      20417.179    
    574000   496.71278      20995.34     
    575000   508.55519      20575.126    
    576000   497.88369      20314.747    
    577000   490.82464      20488.231    
    578000   493.7275       21028.52     
    579000   527.45272      20906.134    
    580000   496.98216      20229.346    
    581000   509.80808      20682.821    
    582000   494.39549      21178.036    
    583000   525.18645      20209.204    
    584000   505.31844      20314.999    
    585000   478.24081      20956.058    
    586000   497.30285      20706.782    
    587000   503.02487      20293.967    
    588000   498.54295      20489.502    
    589000   487.19962      21234.422    
    590000   491.33965      20737.15     
    591000   493.41865      20227.131    
    592000   477.50483      20381.253    
    593000   504.57077      20703.372    
    594000   476.98477      20500.656    
    595000   501.43415      20051.121    
    596000   490.34043      20407.991    
    597000   498.803        20816.85     
    598000   491.01376      20651.017    
    599000   505.61753      20346.006    
    600000   491.21141      20511.381    
    601000   491.77448      20642.756    
    602000   501.8597       20535.477    
    603000   491.58734      20389.054    
    604000   519.3298       20431.813    
    605000   502.13878      20739.079    
    606000   484.74723      20545.407    
    607000   508.10547      20442.962    
    608000   490.02989      20691.115    
    609000   500.21705      20468.527    
    610000   496.47109      20383.177    
    611000   481.0533       20693.373    
    612000   500.0783       20670.213    
    613000   503.92554      20647.011    
    614000   514.7037       20628.514    
    615000   512.53953      20749.142    
    616000   490.08333      20722.633    
    617000   505.86012      20388.729    
    618000   516.20328      20318.395    
    619000   482.00636      20454.734    
    620000   494.9255       20721.744    
    621000   496.3291       20871.512    
    622000   493.83114      20463.562    
    623000   487.9722       20385.841    
    624000   498.33562      20186.107    
    625000   505.63458      20604.055    
    626000   503.92395      20352.796    
    627000   522.35695      20189.966    
    628000   494.92133      20393.197    
    629000   500.86771      20591.032    
    630000   502.63491      20722.23     
    631000   490.23235      20344.566    
    632000   498.66598      20824.187    
    633000   497.98928      21008.642    
    634000   513.32814      20343.067    
    635000   501.8373       20279.723    
    636000   502.31424      20340.552    
    637000   518.12559      20552.973    
    638000   477.92579      20778.277    
    639000   504.27392      20512.889    
    640000   476.8961       20578.653    
    641000   508.13894      20751.055    
    642000   495.35004      20722.311    
    643000   506.45199      21036.082    
    644000   521.24014      20857.112    
    645000   494.95837      20639.86     
    646000   520.4383       20847.295    
    647000   500.35711      20786.906    
    648000   509.66046      20719.282    
    649000   506.30196      20781.418    
    650000   475.88063      20665.673    
    651000   505.93445      21058.795    
    652000   510.00177      20763.912    
    653000   495.13962      20172.773    
    654000   495.92451      20654.18     
    655000   505.11845      20957.669    
    656000   517.76645      20133.918    
    657000   494.70144      20496.521    
    658000   508.72056      21065.139    
    659000   506.32521      20801.329    
    660000   479.17088      20411.491    
    661000   504.61304      20764.371    
    662000   484.01993      21217.346    
    663000   508.18498      20484.863    
    664000   483.10869      20536.338    
    665000   491.16553      20968.06     
    666000   497.86099      20903.886    
    667000   509.88676      20143.818    
    668000   498.72406      20922.216    
    669000   524.46957      21158.813    
    670000   505.48323      20337.006    
    671000   484.2098       20676.015    
    672000   510.15241      21084.154    
    673000   496.77261      21018.724    
    674000   491.24648      20514.097    
    675000   515.03045      20692.94     
    676000   507.37905      21117.521    
    677000   475.96873      20339.658    
    678000   503.79211      20476.415    
    679000   492.60744      20917.439    
    680000   503.26958      20644.066    
    681000   515.20865      20763.903    
    682000   504.29272      20339.046    
    683000   504.48202      20431.899    
    684000   497.9204       20828.617    
    685000   503.2052       20597.077    
    686000   493.74171      20413.458    
    687000   486.65523      20264.597    
    688000   491.55078      20536.301    
    689000   498.94691      20854.563    
    690000   502.31442      20718.182    
    691000   488.25589      20673.697    
    692000   495.61475      20775.258    
    693000   506.89687      20602.899    
    694000   507.19397      20656.191    
    695000   488.82112      20564.769    
    696000   482.82614      20864.689    
    697000   496.34241      20711.505    
    698000   490.7146       20815.421    
    699000   491.94911      20692.099    
    700000   498.22083      20469.419    
    701000   490.81405      20745.423    
    702000   482.23177      20555.875    
    703000   506.714        20446.708    
    704000   527.70452      20800.613    
    705000   502.80154      20841.215    
    706000   490.99588      20848.212    
    707000   494.99873      20486.955    
    708000   506.966        20290.749    
    709000   511.42757      20759.435    
    710000   488.17009      20617.597    
    711000   502.39032      20380.531    
    712000   507.20015      20215.177    
    713000   519.4543       20740.608    
    714000   508.89561      20950.473    
    715000   495.30247      20724.629    
    716000   512.01416      20461.642    
    717000   495.15533      20690.85     
    718000   489.56288      21131.224    
    719000   520.78639      20916.198    
    720000   480.37828      20735.2      
    721000   499.98111      20558.177    
    722000   498.09541      20867.651    
    723000   489.39641      20754.293    
    724000   483.53501      20676.33     
    725000   485.50064      20491.428    
    726000   509.12343      20604.042    
    727000   482.57612      20773.125    
    728000   514.52646      20604.316    
    729000   479.62561      20331.941    
    730000   495.21662      20927.873    
    731000   511.16954      20790.483    
    732000   504.16642      20388.101    
    733000   514.50353      20547.785    
    734000   505.93834      20892.824    
    735000   489.14266      20481.641    
    736000   506.97389      20701.717    
    737000   504.36935      20879.029    
    738000   496.10589      20861.051    
    739000   515.74956      20539.575    
    740000   491.86055      20587.397    
    741000   495.04007      20993.973    
    742000   503.90507      20827.464    
    743000   485.24937      20568.887    
    744000   494.43974      20947.344    
    745000   490.80347      20650.689    
    746000   501.74766      20631.996    
    747000   500.51616      20421.498    
    748000   524.81202      20605.214    
    749000   498.50714      20828.186    
    750000   485.22473      20919.828    
    751000   476.96244      20609.753    
    752000   489.93942      20741.71     
    753000   486.53447      21023.262    
    754000   501.26168      20911.324    
    755000   483.84133      20384.96     
    756000   504.7164       20343.923    
    757000   486.81988      20751.82     
    758000   497.30506      20492.96     
    759000   499.80702      20653.764    
    760000   510.31127      20921.913    
    761000   519.84058      20636.363    
    762000   502.95192      20351.71     
    763000   525.66301      20749.266    
    764000   495.71331      20932.124    
    765000   487.60372      20288.131    
    766000   518.93369      20139.535    
    767000   515.86194      20857.281    
    768000   483.96791      20855.258    
    769000   504.44789      20342.457    
    770000   511.75148      20742.319    
    771000   507.5536       20661.564    
    772000   516.29125      20858.356    
    773000   495.09154      19926.072    
    774000   480.60612      20305.335    
    775000   499.92853      20958.982    
    776000   509.93184      20450.034    
    777000   483.58232      20260.973    
    778000   513.11434      20677.632    
    779000   497.57543      20797.767    
    780000   502.49971      19941.534    
    781000   508.2732       20205.598    
    782000   511.42408      20846.554    
    783000   496.1227       20544.355    
    784000   498.9221       20220.333    
    785000   508.19089      20975.777    
    786000   496.68365      20759.026    
    787000   485.34158      20313.379    
    788000   494.30953      20427.956    
    789000   484.12811      21014.96     
    790000   513.71241      21237.921    
    791000   481.85813      20252.166    
    792000   506.69411      20517.361    
    793000   494.20325      21169.749    
    794000   501.29309      20304.641    
    795000   530.32352      20260.961    
    796000   485.12948      20865.305    
    797000   502.8732       20865.101    
    798000   507.99332      20168.816    
    799000   491.03846      20346.247    
    800000   493.45397      21142.492    
    801000   492.68007      20411.013    
    802000   504.7501       20201.306    
    803000   508.68245      21099.306    
    804000   499.67806      20588.329    
    805000   501.0571       20077.182    
    806000   504.82723      20787.91     
    807000   504.0623       20933.85     
    808000   507.8868       20194.305    
    809000   487.71045      20229.355    
    810000   500.50291      20830.528    
    811000   468.0642       20625.337    
    812000   511.20549      19962.866    
    813000   491.48562      20410.395    
    814000   479.72679      20992.996    
    815000   506.21874      20840.66     
    816000   495.27437      20036.683    
    817000   517.06163      20468.609    
    818000   489.40796      20675.426    
    819000   489.17517      20570.802    
    820000   501.77007      20081.073    
    821000   520.4157       20291.498    
    822000   500.92858      20631.266    
    823000   508.07066      20302.81     
    824000   486.87035      20199.716    
    825000   481.12448      20587.852    
    826000   504.64939      20613.069    
    827000   486.0227       20458.153    
    828000   514.51217      20518.073    
    829000   494.268        20302.695    
    830000   505.24635      20500.029    
    831000   482.42133      20398.776    
    832000   488.47954      20054.079    
    833000   505.05644      20408.844    
    834000   514.30343      20494.586    
    835000   509.43236      20290.286    
    836000   497.30426      20741.199    
    837000   513.44078      20527.622    
    838000   495.51172      20494.416    
    839000   499.20068      20460.252    
    840000   484.70316      20296.085    
    841000   487.30961      20700.017    
    842000   511.02344      21017.916    
    843000   500.76997      20436.003    
    844000   484.0782       20625.948    
    845000   497.07957      20646.938    
    846000   506.3392       20674.257    
    847000   504.05607      20797.14     
    848000   522.62646      20601.022    
    849000   492.01513      20097.404    
    850000   498.79589      20283.037    
    851000   504.44807      20713.584    
    852000   508.55002      20751.424    
    853000   499.4434       20773.056    
    854000   530.51485      20633.305    
    855000   501.53891      20476.541    
    856000   510.90443      20727.079    
    857000   502.97843      20825.26     
    858000   516.74675      20124.292    
    859000   491.98511      20131.755    
    860000   493.6718       20624.234    
    861000   500.58114      20451.368    
    862000   510.75143      20718.5      
    863000   503.30663      20525.707    
    864000   504.93584      20484.109    
    865000   491.08051      20986.351    
    866000   505.83957      20709.785    
    867000   494.86294      20624.98     
    868000   499.40908      20963.237    
    869000   497.18996      20685.626    
    870000   501.60473      20296.633    
    871000   492.6271       20459.847    
    872000   498.55578      21000.634    
    873000   512.07376      20779.381    
    874000   503.93151      20155.393    
    875000   483.85888      20453.088    
    876000   475.7608       21001.52     
    877000   497.8052       20541.67     
    878000   506.78365      20202.236    
    879000   514.98326      20741.03     
    880000   503.2064       20657.538    
    881000   524.87163      20384.508    
    882000   496.86507      20630.941    
    883000   490.45182      20865.403    
    884000   512.5314       20514.571    
    885000   489.47214      20378.951    
    886000   498.76936      20359.949    
    887000   499.15313      20710.534    
    888000   497.95532      20431.246    
    889000   496.88506      20193.334    
    890000   514.6161       20914.483    
    891000   505.18374      20780.188    
    892000   497.48079      20566.877    
    893000   488.34111      20704.732    
    894000   499.4206       21005.201    
    895000   482.21631      20583.984    
    896000   487.2365       20441.681    
    897000   483.11022      20317.619    
    898000   505.21252      20757.545    
    899000   492.65957      20824.585    
    900000   496.28321      20211.177    
    901000   491.02426      20176.006    
    902000   507.95484      20757.786    
    903000   512.54795      20518.042    
    904000   507.61381      20328.755    
    905000   493.90626      20520.697    
    906000   492.12408      20691.058    
    907000   507.23128      20532.786    
    908000   508.55139      20111.559    
    909000   506.21915      20462.79     
    910000   484.10296      21013.672    
    911000   500.4173       20533.78     
    912000   497.47279      20281.005    
    913000   506.48067      20403.538    
    914000   507.50644      20616        
    915000   503.19856      20604.05     
    916000   518.97929      20134.606    
    917000   507.96843      20153.755    
    918000   503.34225      20720.959    
    919000   493.13103      20618.345    
    920000   514.35537      20757.388    
    921000   487.27576      20438.767    
    922000   506.15478      20493.955    
    923000   491.76825      20906.103    
    924000   485.71526      20684.48     
    925000   499.36982      20081.433    
    926000   499.20012      20298.125    
    927000   517.23949      20826.197    
    928000   505.61426      20324.729    
    929000   501.872        20249.065    
    930000   497.81557      20801.141    
    931000   504.39613      20580.395    
    932000   513.36807      20066.235    
    933000   484.3443       20066.584    
    934000   512.67254      20276.333    
    935000   495.67086      20819.655    
    936000   512.84513      21163.549    
    937000   492.63137      20331.815    
    938000   510.89387      20450.598    
    939000   500.34596      20714.295    
    940000   525.35165      20703.842    
    941000   473.34024      20608.709    
    942000   485.16065      20200.355    
    943000   493.55056      20716.136    
    944000   475.30941      20641.056    
    945000   503.82053      19949.741    
    946000   503.57218      20436.323    
    947000   486.14233      20728.846    
    948000   520.51502      21027.876    
    949000   504.98437      20501.303    
    950000   497.36312      20492.639    
    951000   509.2076       20374.999    
    952000   526.07058      20635.22     
    953000   491.18014      20650.525    
    954000   518.59438      20825.104    
    955000   499.23832      20397.384    
    956000   494.87581      20262.316    
    957000   485.30293      20690.312    
    958000   514.95879      20820.241    
    959000   514.20132      20102.768    
    960000   489.71082      20252.897    
    961000   504.26657      20564.597    
    962000   504.92762      20584.499    
    963000   492.60758      20808.495    
    964000   524.07299      20478.233    
    965000   511.30483      20805.463    
    966000   497.3698       21159.715    
    967000   501.01622      20781.27     
    968000   503.29925      20593.295    
    969000   499.13783      20924.041    
    970000   489.01636      20908.572    
    971000   505.878        20549.048    
    972000   486.26108      20747.752    
    973000   493.84699      21285.204    
    974000   499.27215      20646.562    
    975000   506.62751      20555.422    
    976000   504.08015      20799.108    
    977000   513.94489      20571.919    
    978000   489.0041       20641.908    
    979000   497.53464      20721.251    
    980000   482.59677      20629.721    
    981000   503.51402      21104.33     
    982000   511.43976      20775.486    
    983000   493.80415      20386.633    
    984000   488.89761      20637.974    
    985000   524.38606      21058.064    
    986000   489.4259       20747.042    
    987000   496.05382      20494.595    
    988000   507.66196      20542.137    
    989000   489.12304      21280.738    
    990000   512.625        20619.364    
    991000   484.88822      20489.513    
    992000   506.94629      21213.177    
    993000   513.6926       21050.531    
    994000   497.86613      20689.828    
    995000   502.44015      20500.905    
    996000   485.78463      20786.42     
    997000   507.40664      20903.292    
    998000   473.09552      20514.337    
    999000   500.81618      20276.021    
   1000000   507.5578       20801.673    
Loop time of 511.563 on 48 procs for 1000000 steps with 1392 atoms

Performance: 168.894 ns/day, 0.142 hours/ns, 1954.793 timesteps/s, 2.721 Matom-step/s
99.5% CPU use with 48 MPI tasks x no OpenMP threads

MPI task timing breakdown:
Section |  min time  |  avg time  |  max time  |%varavg| %total
---------------------------------------------------------------
Pair    | 67.944     | 106.22     | 131.54     | 212.9 | 20.76
Bond    | 4.6446     | 8.8913     | 11.399     |  63.9 |  1.74
Neigh   | 17.073     | 19.517     | 22.887     |  42.0 |  3.82
Comm    | 293.23     | 322.56     | 367.33     | 132.6 | 63.05
Output  | 0.01743    | 0.018671   | 0.048107   |   3.1 |  0.00
Modify  | 41.818     | 46.76      | 49.501     |  31.5 |  9.14
Other   |            | 7.596      |            |       |  1.48

Nlocal:             29 ave          38 max          17 min
Histogram: 5 3 5 2 1 4 4 9 11 4
Nghost:        3451.02 ave        3551 max        3294 min
Histogram: 3 5 6 2 0 0 5 7 12 8
Neighs:        12129.5 ave       15975 max        7049 min
Histogram: 5 1 5 3 2 5 5 9 12 1

Total # of neighbors = 582215
Ave neighs/atom = 418.2579
Ave special neighs/atom = 6.8965517
Neighbor list builds = 29734
Dangerous builds = 0
All done!
Total wall time: 2:32:01
