Created on Tue Aug 22 17:20:43 2023 

         424 atoms
         512 bonds
         912 angles
         960 dihedrals
         576 impropers

           5 atom types
           6 bond types
           9 angle types
           3 dihedral types
           1 improper types
           0.000000  25.832000 xlo xhi
           0.000000  25.832000 ylo yhi
           0.000000  25.832000 zlo zhi
           0.000000   0.000000   0.000000 xy xz yz

Masses

    1    15.999400000 # O_R
    2    12.010700000 # C_R
    3     1.007940000 # H_
    4    65.380000000 # Zn3+2
    5    15.999400000 # O_2

Bond Coeffs

    1      646.680887        1.311940  # O_R C_R
    2      160.291409        1.840266  # O_R Zn3+2
    3      391.669513        1.458000  # C_R C_R
    4      462.655054        1.379256  # C_R C_R
    5      357.440381        1.081418  # C_R H_
    6      172.603617        1.795426  # Zn3+2 O_2

Angle Coeffs

    1              cosine/periodic       60.877639              -1               3 # C_R O_R Zn3+2
    2              cosine/periodic      131.755710              -1               3 # O_R C_R C_R
    3              cosine/periodic      187.136328              -1               3 # O_R C_R O_R
    4              cosine/periodic      102.183280              -1               3 # C_R C_R C_R
    5              cosine/periodic      111.297508              -1               3 # C_R C_R C_R
    6              cosine/periodic       57.289016              -1               3 # C_R C_R H_
    7                      fourier      179.021796        0.343737        0.374972        0.281246 # O_R Zn3+2 O_2
    8                      fourier      172.607259        0.343737        0.374972        0.281246 # O_R Zn3+2 O_R
    9              cosine/periodic       23.613368              -1               3 # Zn3+2 O_2 Zn3+2

Dihedral Coeffs

    1        6.737110              -1               2 # Zn3+2 O_R C_R C_R
    2        1.250000              -1               2 # O_R C_R C_R C_R
    3        3.368555              -1               2 # C_R C_R C_R H_

Improper Coeffs

    1        2.000000        1.000000       -1.000000        0.000000               0 # O_R C_R C_R O_R

Pair Coeffs

    1        0.060000        3.118146 # O_R O_R
    2        0.105000        3.430851 # C_R C_R
    3        0.044000        2.571134 # H_ H_
    4        0.124000        2.461553 # Zn3+2 Zn3+2
    5        0.060000        3.118146 # O_2 O_2

Atoms

       1      444        1     0.00000    3.57282    7.26473    5.65127
       2      444        2     0.00000    2.92108    6.45800    6.45800
       3      444        2     0.00000    1.42541    6.45800    6.45800
       4      444        2     0.00000    0.70211    7.31226    5.60374
       5      444        3     0.00000    1.21979    7.98493    4.93107
       6      444        1     0.00000    3.57282   18.56727   20.18073
       7      444        2     0.00000    2.92108   19.37400   19.37400
       8      444        2     0.00000    1.42541   19.37400   19.37400
       9      444        2     0.00000    0.70211   18.51974   20.22826
      10      444        3     0.00000    1.21979   17.84707   20.90093
      11      444        1     0.00000    3.57282   20.18073   18.56727
      12      444        2     0.00000    0.70211   20.22826   18.51974
      13      444        3     0.00000    1.21979   20.90093   17.84707
      14      444        1     0.00000    3.57282    5.65127    7.26473
      15      444        2     0.00000    0.70211    5.60374    7.31226
      16      444        3     0.00000    1.21979    4.93107    7.98493
      17      444        4     0.00000    5.39217    7.52383    5.39217
      18      444        4     0.00000    5.39217   18.30817   20.43983
      19      444        4     0.00000    5.39217    5.39217    7.52383
      20      444        4     0.00000    5.39217   20.43983   18.30817
      21      444        1     0.00000    5.65127    3.57282    7.26473
      22      444        2     0.00000    6.45800    2.92108    6.45800
      23      444        2     0.00000    6.45800    1.42541    6.45800
      24      444        2     0.00000    5.60374    0.70211    7.31226
      25      444        3     0.00000    4.93107    1.21979    7.98493
      26      444        1     0.00000   20.18073    3.57282   18.56727
      27      444        2     0.00000   19.37400    2.92108   19.37400
      28      444        2     0.00000   19.37400    1.42541   19.37400
      29      444        2     0.00000   20.22826    0.70211   18.51974
      30      444        3     0.00000   20.90093    1.21979   17.84707
      31      444        1     0.00000    7.26473    3.57282    5.65127
      32      444        2     0.00000    7.31226    0.70211    5.60374
      33      444        3     0.00000    7.98493    1.21979    4.93107
      34      444        1     0.00000   18.56727    3.57282   20.18073
      35      444        2     0.00000   18.51974    0.70211   20.22826
      36      444        3     0.00000   17.84707    1.21979   20.90093
      37      444        4     0.00000    7.52383    5.39217    5.39217
      38      444        4     0.00000   18.30817    5.39217   20.43983
      39      444        4     0.00000   20.43983    5.39217   18.30817
      40      444        5     0.00000    6.45800    6.45800    6.45800
      41      444        1     0.00000    7.26473    5.65127    3.57282
      42      444        2     0.00000    6.45800    6.45800    2.92108
      43      444        2     0.00000    6.45800    6.45800    1.42541
      44      444        2     0.00000    7.31226    5.60374    0.70211
      45      444        3     0.00000    7.98493    4.93107    1.21979
      46      444        4     0.00000   18.30817   20.43983    5.39217
      47      444        5     0.00000   19.37400   19.37400    6.45800
      48      444        1     0.00000   18.56727   20.18073    3.57282
      49      444        2     0.00000   19.37400   19.37400    2.92108
      50      444        2     0.00000   19.37400   19.37400    1.42541
      51      444        2     0.00000   18.51974   20.22826    0.70211
      52      444        3     0.00000   17.84707   20.90093    1.21979
      53      444        5     0.00000   19.37400    6.45800   19.37400
      54      444        4     0.00000    7.52383   20.43983   20.43983
      55      444        5     0.00000    6.45800   19.37400   19.37400
      56      444        4     0.00000   20.43983   18.30817    5.39217
      57      444        4     0.00000   20.43983    7.52383   20.43983
      58      444        4     0.00000   20.43983   20.43983    7.52383
      59      444        4     0.00000    5.39217    7.52383   20.43983
      60      444        5     0.00000    6.45800    6.45800   19.37400
      61      444        4     0.00000   20.43983   18.30817   20.43983
      62      444        5     0.00000   19.37400   19.37400   19.37400
      63      444        4     0.00000    5.39217   18.30817    5.39217
      64      444        5     0.00000    6.45800   19.37400    6.45800
      65      444        1     0.00000    5.65127   18.56727    3.57282
      66      444        2     0.00000    6.45800   19.37400    2.92108
      67      444        2     0.00000    6.45800   19.37400    1.42541
      68      444        2     0.00000    5.60374   18.51974    0.70211
      69      444        3     0.00000    4.93107   17.84707    1.21979
      70      444        4     0.00000   20.43983    7.52383    5.39217
      71      444        5     0.00000   19.37400    6.45800    6.45800
      72      444        1     0.00000   20.18073    7.26473    3.57282
      73      444        2     0.00000   19.37400    6.45800    2.92108
      74      444        2     0.00000   19.37400    6.45800    1.42541
      75      444        2     0.00000   20.22826    7.31226    0.70211
      76      444        3     0.00000   20.90093    7.98493    1.21979
      77      444        4     0.00000    7.52383    5.39217   20.43983
      78      444        1     0.00000    7.26473    3.57282   20.18073
      79      444        2     0.00000    6.45800    2.92108   19.37400
      80      444        2     0.00000    6.45800    1.42541   19.37400
      81      444        2     0.00000    7.31226    0.70211   20.22826
      82      444        3     0.00000    7.98493    1.21979   20.90093
      83      444        4     0.00000   18.30817    5.39217    5.39217
      84      444        1     0.00000   18.56727    3.57282    5.65127
      85      444        2     0.00000   19.37400    2.92108    6.45800
      86      444        2     0.00000   19.37400    1.42541    6.45800
      87      444        2     0.00000   18.51974    0.70211    5.60374
      88      444        3     0.00000   17.84707    1.21979    4.93107
      89      444        4     0.00000   18.30817   20.43983   20.43983
      90      444        1     0.00000   18.56727   22.25918   20.18073
      91      444        2     0.00000   19.37400   22.91092   19.37400
      92      444        2     0.00000   19.37400   24.40659   19.37400
      93      444        2     0.00000   18.51974   25.12989   20.22826
      94      444        3     0.00000   17.84707   24.61221   20.90093
      95      444        4     0.00000    7.52383   20.43983    5.39217
      96      444        1     0.00000    7.26473   22.25918    5.65127
      97      444        2     0.00000    6.45800   22.91092    6.45800
      98      444        2     0.00000    6.45800   24.40659    6.45800
      99      444        2     0.00000    7.31226   25.12989    5.60374
     100      444        3     0.00000    7.98493   24.61221    4.93107
     101      444        4     0.00000    5.39217    5.39217   18.30817
     102      444        1     0.00000    3.57282    5.65127   18.56727
     103      444        2     0.00000    2.92108    6.45800   19.37400
     104      444        2     0.00000    1.42541    6.45800   19.37400
     105      444        2     0.00000    0.70211    5.60374   18.51974
     106      444        3     0.00000    1.21979    4.93107   17.84707
     107      444        4     0.00000    5.39217   20.43983    7.52383
     108      444        1     0.00000    3.57282   20.18073    7.26473
     109      444        2     0.00000    2.92108   19.37400    6.45800
     110      444        2     0.00000    1.42541   19.37400    6.45800
     111      444        2     0.00000    0.70211   20.22826    7.31226
     112      444        3     0.00000    1.21979   20.90093    7.98493
     113      444        4     0.00000   20.43983    5.39217    7.52383
     114      444        1     0.00000   22.25918    5.65127    7.26473
     115      444        2     0.00000   22.91092    6.45800    6.45800
     116      444        2     0.00000   24.40659    6.45800    6.45800
     117      444        2     0.00000   25.12989    5.60374    7.31226
     118      444        3     0.00000   24.61221    4.93107    7.98493
     119      444        4     0.00000   20.43983   20.43983   18.30817
     120      444        1     0.00000   22.25918   20.18073   18.56727
     121      444        2     0.00000   22.91092   19.37400   19.37400
     122      444        2     0.00000   24.40659   19.37400   19.37400
     123      444        2     0.00000   25.12989   20.22826   18.51974
     124      444        3     0.00000   24.61221   20.90093   17.84707
     125      444        1     0.00000    7.26473   20.18073    3.57282
     126      444        2     0.00000    7.31226   20.22826    0.70211
     127      444        3     0.00000    7.98493   20.90093    1.21979
     128      444        1     0.00000   18.56727    5.65127    3.57282
     129      444        2     0.00000   18.51974    5.60374    0.70211
     130      444        3     0.00000   17.84707    4.93107    1.21979
     131      444        1     0.00000   22.25918   18.56727   20.18073
     132      444        2     0.00000   25.12989   18.51974   20.22826
     133      444        3     0.00000   24.61221   17.84707   20.90093
     134      444        1     0.00000   22.25918    7.26473    5.65127
     135      444        2     0.00000   25.12989    7.31226    5.60374
     136      444        3     0.00000   24.61221    7.98493    4.93107
     137      444        1     0.00000    3.57282    7.26473   20.18073
     138      444        2     0.00000    0.70211    7.31226   20.22826
     139      444        3     0.00000    1.21979    7.98493   20.90093
     140      444        1     0.00000    3.57282   18.56727    5.65127
     141      444        2     0.00000    0.70211   18.51974    5.60374
     142      444        3     0.00000    1.21979   17.84707    4.93107
     143      444        1     0.00000   20.18073   22.25918   18.56727
     144      444        2     0.00000   20.22826   25.12989   18.51974
     145      444        3     0.00000   20.90093   24.61221   17.84707
     146      444        1     0.00000    5.65127   22.25918    7.26473
     147      444        2     0.00000    5.60374   25.12989    7.31226
     148      444        3     0.00000    4.93107   24.61221    7.98493
     149      444        1     0.00000   20.18073    3.57282    7.26473
     150      444        2     0.00000   20.22826    0.70211    7.31226
     151      444        3     0.00000   20.90093    1.21979    7.98493
     152      444        1     0.00000    5.65127    3.57282   18.56727
     153      444        2     0.00000    5.60374    0.70211   18.51974
     154      444        3     0.00000    4.93107    1.21979   17.84707
     155      444        1     0.00000   20.18073   18.56727    3.57282
     156      444        2     0.00000   20.22826   18.51974    0.70211
     157      444        3     0.00000   20.90093   17.84707    1.21979
     158      444        1     0.00000    5.65127    7.26473    3.57282
     159      444        2     0.00000    5.60374    7.31226    0.70211
     160      444        3     0.00000    4.93107    7.98493    1.21979
     161      444        4     0.00000    7.52383   18.30817   18.30817
     162      444        1     0.00000    7.26473   18.56727   16.48882
     163      444        2     0.00000    6.45800   19.37400   15.83708
     164      444        2     0.00000    6.45800   19.37400   14.34141
     165      444        2     0.00000    7.31226   18.51974   13.61811
     166      444        3     0.00000    7.98493   17.84707   14.13579
     167      444        4     0.00000   18.30817    7.52383   18.30817
     168      444        1     0.00000   18.56727    7.26473   16.48882
     169      444        2     0.00000   19.37400    6.45800   15.83708
     170      444        2     0.00000   19.37400    6.45800   14.34141
     171      444        2     0.00000   18.51974    7.31226   13.61811
     172      444        3     0.00000   17.84707    7.98493   14.13579
     173      444        4     0.00000   18.30817   18.30817    7.52383
     174      444        1     0.00000   18.56727   18.56727    9.34318
     175      444        2     0.00000   19.37400   19.37400    9.99492
     176      444        2     0.00000   19.37400   19.37400   11.49059
     177      444        2     0.00000   18.51974   18.51974   12.21389
     178      444        3     0.00000   17.84707   17.84707   11.69621
     179      444        4     0.00000    7.52383    7.52383    7.52383
     180      444        1     0.00000    7.26473    7.26473    9.34318
     181      444        2     0.00000    6.45800    6.45800    9.99492
     182      444        2     0.00000    6.45800    6.45800   11.49059
     183      444        2     0.00000    7.31226    7.31226   12.21389
     184      444        3     0.00000    7.98493    7.98493   11.69621
     185      444        1     0.00000    5.65127   16.48882   20.18073
     186      444        2     0.00000    6.45800   15.83708   19.37400
     187      444        2     0.00000    6.45800   14.34141   19.37400
     188      444        2     0.00000    5.60374   13.61811   20.22826
     189      444        3     0.00000    4.93107   14.13579   20.90093
     190      444        1     0.00000   20.18073   16.48882    5.65127
     191      444        2     0.00000   19.37400   15.83708    6.45800
     192      444        2     0.00000   19.37400   14.34141    6.45800
     193      444        2     0.00000   20.22826   13.61811    5.60374
     194      444        3     0.00000   20.90093   14.13579    4.93107
     195      444        1     0.00000    5.65127    9.34318    5.65127
     196      444        2     0.00000    6.45800    9.99492    6.45800
     197      444        2     0.00000    6.45800   11.49059    6.45800
     198      444        2     0.00000    5.60374   12.21389    5.60374
     199      444        3     0.00000    4.93107   11.69621    4.93107
     200      444        1     0.00000   20.18073    9.34318   20.18073
     201      444        2     0.00000   19.37400    9.99492   19.37400
     202      444        2     0.00000   19.37400   11.49059   19.37400
     203      444        2     0.00000   20.22826   12.21389   20.22826
     204      444        3     0.00000   20.90093   11.69621   20.90093
     205      444        1     0.00000    5.65127   20.18073    9.34318
     206      444        2     0.00000    6.45800   19.37400    9.99492
     207      444        2     0.00000    6.45800   19.37400   11.49059
     208      444        2     0.00000    5.60374   20.22826   12.21389
     209      444        3     0.00000    4.93107   20.90093   11.69621
     210      444        1     0.00000   20.18073    5.65127    9.34318
     211      444        2     0.00000   19.37400    6.45800    9.99492
     212      444        2     0.00000   19.37400    6.45800   11.49059
     213      444        2     0.00000   20.22826    5.60374   12.21389
     214      444        3     0.00000   20.90093    4.93107   11.69621
     215      444        1     0.00000    5.65127    5.65127   16.48882
     216      444        2     0.00000    6.45800    6.45800   15.83708
     217      444        2     0.00000    6.45800    6.45800   14.34141
     218      444        2     0.00000    5.60374    5.60374   13.61811
     219      444        3     0.00000    4.93107    4.93107   14.13579
     220      444        1     0.00000   20.18073   20.18073   16.48882
     221      444        2     0.00000   19.37400   19.37400   15.83708
     222      444        2     0.00000   19.37400   19.37400   14.34141
     223      444        2     0.00000   20.22826   20.22826   13.61811
     224      444        3     0.00000   20.90093   20.90093   14.13579
     225      444        4     0.00000    7.52383   18.30817    7.52383
     226      444        1     0.00000    7.26473   16.48882    7.26473
     227      444        2     0.00000    6.45800   15.83708    6.45800
     228      444        2     0.00000    6.45800   14.34141    6.45800
     229      444        2     0.00000    7.31226   13.61811    7.31226
     230      444        3     0.00000    7.98493   14.13579    7.98493
     231      444        4     0.00000   18.30817   18.30817   18.30817
     232      444        1     0.00000   18.56727   16.48882   18.56727
     233      444        2     0.00000   19.37400   15.83708   19.37400
     234      444        2     0.00000   19.37400   14.34141   19.37400
     235      444        2     0.00000   18.51974   13.61811   18.51974
     236      444        3     0.00000   17.84707   14.13579   17.84707
     237      444        4     0.00000   18.30817    7.52383    7.52383
     238      444        1     0.00000   18.56727    9.34318    7.26473
     239      444        2     0.00000   19.37400    9.99492    6.45800
     240      444        2     0.00000   19.37400   11.49059    6.45800
     241      444        2     0.00000   18.51974   12.21389    7.31226
     242      444        3     0.00000   17.84707   11.69621    7.98493
     243      444        4     0.00000    7.52383    7.52383   18.30817
     244      444        1     0.00000    7.26473    9.34318   18.56727
     245      444        2     0.00000    6.45800    9.99492   19.37400
     246      444        2     0.00000    6.45800   11.49059   19.37400
     247      444        2     0.00000    7.31226   12.21389   18.51974
     248      444        3     0.00000    7.98493   11.69621   17.84707
     249      444        1     0.00000   18.56727    7.26473    9.34318
     250      444        2     0.00000   18.51974    7.31226   12.21389
     251      444        3     0.00000   17.84707    7.98493   11.69621
     252      444        1     0.00000    7.26473   18.56727    9.34318
     253      444        2     0.00000    7.31226   18.51974   12.21389
     254      444        3     0.00000    7.98493   17.84707   11.69621
     255      444        1     0.00000    7.26473    7.26473   16.48882
     256      444        2     0.00000    7.31226    7.31226   13.61811
     257      444        3     0.00000    7.98493    7.98493   14.13579
     258      444        1     0.00000   18.56727   18.56727   16.48882
     259      444        2     0.00000   18.51974   18.51974   13.61811
     260      444        3     0.00000   17.84707   17.84707   14.13579
     261      444        1     0.00000   20.18073    9.34318    5.65127
     262      444        2     0.00000   20.22826   12.21389    5.60374
     263      444        3     0.00000   20.90093   11.69621    4.93107
     264      444        1     0.00000    5.65127    9.34318   20.18073
     265      444        2     0.00000    5.60374   12.21389   20.22826
     266      444        3     0.00000    4.93107   11.69621   20.90093
     267      444        1     0.00000   20.18073   16.48882   20.18073
     268      444        2     0.00000   20.22826   13.61811   20.22826
     269      444        3     0.00000   20.90093   14.13579   20.90093
     270      444        1     0.00000    5.65127   16.48882    5.65127
     271      444        2     0.00000    5.60374   13.61811    5.60374
     272      444        3     0.00000    4.93107   14.13579    4.93107
     273      444        1     0.00000   20.18073    5.65127   16.48882
     274      444        2     0.00000   20.22826    5.60374   13.61811
     275      444        3     0.00000   20.90093    4.93107   14.13579
     276      444        1     0.00000    5.65127   20.18073   16.48882
     277      444        2     0.00000    5.60374   20.22826   13.61811
     278      444        3     0.00000    4.93107   20.90093   14.13579
     279      444        1     0.00000   20.18073   20.18073    9.34318
     280      444        2     0.00000   20.22826   20.22826   12.21389
     281      444        3     0.00000   20.90093   20.90093   11.69621
     282      444        1     0.00000    5.65127    5.65127    9.34318
     283      444        2     0.00000    5.60374    5.60374   12.21389
     284      444        3     0.00000    4.93107    4.93107   11.69621
     285      444        1     0.00000   18.56727    9.34318   18.56727
     286      444        2     0.00000   18.51974   12.21389   18.51974
     287      444        3     0.00000   17.84707   11.69621   17.84707
     288      444        1     0.00000    7.26473    9.34318    7.26473
     289      444        2     0.00000    7.31226   12.21389    7.31226
     290      444        3     0.00000    7.98493   11.69621    7.98493
     291      444        1     0.00000    7.26473   16.48882   18.56727
     292      444        2     0.00000    7.31226   13.61811   18.51974
     293      444        3     0.00000    7.98493   14.13579   17.84707
     294      444        1     0.00000   18.56727   16.48882    7.26473
     295      444        2     0.00000   18.51974   13.61811    7.31226
     296      444        3     0.00000   17.84707   14.13579    7.98493
     297      444        1     0.00000   16.48882    7.26473   18.56727
     298      444        2     0.00000   15.83708    6.45800   19.37400
     299      444        2     0.00000   14.34141    6.45800   19.37400
     300      444        2     0.00000   13.61811    7.31226   18.51974
     301      444        3     0.00000   14.13579    7.98493   17.84707
     302      444        1     0.00000   16.48882   18.56727    7.26473
     303      444        2     0.00000   15.83708   19.37400    6.45800
     304      444        2     0.00000   14.34141   19.37400    6.45800
     305      444        2     0.00000   13.61811   18.51974    7.31226
     306      444        3     0.00000   14.13579   17.84707    7.98493
     307      444        1     0.00000    9.34318   18.56727   18.56727
     308      444        2     0.00000    9.99492   19.37400   19.37400
     309      444        2     0.00000   11.49059   19.37400   19.37400
     310      444        2     0.00000   12.21389   18.51974   18.51974
     311      444        3     0.00000   11.69621   17.84707   17.84707
     312      444        1     0.00000    9.34318    7.26473    7.26473
     313      444        2     0.00000    9.99492    6.45800    6.45800
     314      444        2     0.00000   11.49059    6.45800    6.45800
     315      444        2     0.00000   12.21389    7.31226    7.31226
     316      444        3     0.00000   11.69621    7.98493    7.98493
     317      444        1     0.00000   16.48882    5.65127    5.65127
     318      444        2     0.00000   15.83708    6.45800    6.45800
     319      444        2     0.00000   14.34141    6.45800    6.45800
     320      444        2     0.00000   13.61811    5.60374    5.60374
     321      444        3     0.00000   14.13579    4.93107    4.93107
     322      444        1     0.00000   16.48882   20.18073   20.18073
     323      444        2     0.00000   15.83708   19.37400   19.37400
     324      444        2     0.00000   14.34141   19.37400   19.37400
     325      444        2     0.00000   13.61811   20.22826   20.22826
     326      444        3     0.00000   14.13579   20.90093   20.90093
     327      444        1     0.00000    9.34318    5.65127   20.18073
     328      444        2     0.00000    9.99492    6.45800   19.37400
     329      444        2     0.00000   11.49059    6.45800   19.37400
     330      444        2     0.00000   12.21389    5.60374   20.22826
     331      444        3     0.00000   11.69621    4.93107   20.90093
     332      444        1     0.00000    9.34318   20.18073    5.65127
     333      444        2     0.00000    9.99492   19.37400    6.45800
     334      444        2     0.00000   11.49059   19.37400    6.45800
     335      444        2     0.00000   12.21389   20.22826    5.60374
     336      444        3     0.00000   11.69621   20.90093    4.93107
     337      444        1     0.00000    9.34318   18.56727    7.26473
     338      444        2     0.00000   12.21389   18.51974    7.31226
     339      444        3     0.00000   11.69621   17.84707    7.98493
     340      444        1     0.00000    9.34318    7.26473   18.56727
     341      444        2     0.00000   12.21389    7.31226   18.51974
     342      444        3     0.00000   11.69621    7.98493   17.84707
     343      444        1     0.00000   16.48882    7.26473    7.26473
     344      444        2     0.00000   13.61811    7.31226    7.31226
     345      444        3     0.00000   14.13579    7.98493    7.98493
     346      444        1     0.00000   16.48882   18.56727   18.56727
     347      444        2     0.00000   13.61811   18.51974   18.51974
     348      444        3     0.00000   14.13579   17.84707   17.84707
     349      444        1     0.00000    9.34318   20.18073   20.18073
     350      444        2     0.00000   12.21389   20.22826   20.22826
     351      444        3     0.00000   11.69621   20.90093   20.90093
     352      444        1     0.00000    9.34318    5.65127    5.65127
     353      444        2     0.00000   12.21389    5.60374    5.60374
     354      444        3     0.00000   11.69621    4.93107    4.93107
     355      444        1     0.00000   16.48882   20.18073    5.65127
     356      444        2     0.00000   13.61811   20.22826    5.60374
     357      444        3     0.00000   14.13579   20.90093    4.93107
     358      444        1     0.00000   16.48882    5.65127   20.18073
     359      444        2     0.00000   13.61811    5.60374   20.22826
     360      444        3     0.00000   14.13579    4.93107   20.90093
     361      444        1     0.00000   18.56727    5.65127   22.25918
     362      444        1     0.00000    7.26473   20.18073   22.25918
     363      444        1     0.00000   22.25918   18.56727    5.65127
     364      444        1     0.00000   22.25918    7.26473   20.18073
     365      444        1     0.00000    5.65127   22.25918   18.56727
     366      444        1     0.00000   20.18073   22.25918    7.26473
     367      444        1     0.00000    5.65127    7.26473   22.25918
     368      444        1     0.00000   20.18073   18.56727   22.25918
     369      444        1     0.00000   18.56727   20.18073   22.25918
     370      444        1     0.00000    7.26473    5.65127   22.25918
     371      444        1     0.00000   20.18073    7.26473   22.25918
     372      444        1     0.00000    5.65127   18.56727   22.25918
     373      444        1     0.00000   18.56727   22.25918    5.65127
     374      444        1     0.00000    7.26473   22.25918   20.18073
     375      444        1     0.00000   22.25918   20.18073    7.26473
     376      444        1     0.00000   22.25918    5.65127   18.56727
     377      444        2     0.00000   19.37400    6.45800   22.91092
     378      444        2     0.00000   19.37400    6.45800   24.40659
     379      444        2     0.00000   18.51974    5.60374   25.12989
     380      444        3     0.00000   17.84707    4.93107   24.61221
     381      444        2     0.00000    6.45800   19.37400   22.91092
     382      444        2     0.00000    6.45800   19.37400   24.40659