LAMMPS (2 Aug 2023)

The 'box' command has been removed and will be ignored

Reading data file ...
  triclinic box = (0 0 0) to (38.6064 36.185 26.087395) with tilt (0 -12.753558 0)
  4 by 4 by 3 MPI processor grid
  reading atoms ...
  2064 atoms
  scanning bonds ...
  3 = max bonds/atom
  scanning angles ...
  6 = max angles/atom
  scanning dihedrals ...
  8 = max dihedrals/atom
  scanning impropers ...
  3 = max impropers/atom
  reading bonds ...
  2496 bonds
  reading angles ...
  4272 angles
  reading dihedrals ...
  5184 dihedrals
  reading impropers ...
  3168 impropers
Finding 1-2 1-3 1-4 neighbors ...
  special bond factors lj:    0        0        1       
  special bond factors coul:  0        0        1       
     4 = max # of 1-2 neighbors
     6 = max # of 1-3 neighbors
     9 = max # of special neighbors
  special bonds CPU = 0.314 seconds
  read_data CPU = 1.017 seconds
2064 atoms in group fram
Generated 10 of 10 mixed pair_coeff terms from arithmetic mixing rule
Neighbor list info ...
  update: every = 1 steps, delay = 0 steps, check = yes
  max neighbors/atom: 2000, page size: 100000
  master list distance cutoff = 14.5
  ghost atom cutoff = 14.5
  binsize = 7.25, bins = 8 5 4
  1 neighbor lists, perpetual/occasional/extra = 1 0 0
  (1) pair lj/cut, perpetual
      attributes: half, newton on
      pair build: half/bin/newton/tri
      stencil: half/bin/3d/tri
      bin: standard
Setting up cg style minimization ...
  Unit style    : real
  Current step  : 0
WARNING: Inconsistent image flags (../domain.cpp:815)
Per MPI rank memory allocation (min/avg/max) = 13.04 | 13.05 | 13.06 Mbytes
   Step          Temp          Volume    
         0   0              36443.376    
       137   0              36443.376    
Loop time of 1.23874 on 48 procs for 137 steps with 2064 atoms

96.9% CPU use with 48 MPI tasks x no OpenMP threads

Minimization stats:
  Stopping criterion = linesearch alpha is zero
  Energy initial, next-to-last, final = 
      31360.2163221629   14578.9055491778   14578.9055491778
  Force two-norm initial, final = 5031.1049 1.4545055
  Force max component initial, final = 168.07465 0.058391794
  Final line search alpha, max atom move = 3.7252903e-09 2.1752639e-10
  Iterations, force evaluations = 137 331

MPI task timing breakdown:
Section |  min time  |  avg time  |  max time  |%varavg| %total
---------------------------------------------------------------
Pair    | 0.052433   | 0.067622   | 0.093518   |   5.5 |  5.46
Bond    | 0.003698   | 0.0046543  | 0.0063507  |   1.3 |  0.38
Neigh   | 0.00067622 | 0.00084206 | 0.0009205  |   0.0 |  0.07
Comm    | 0.42216    | 0.47797    | 0.62826    |   5.8 | 38.59
Output  | 0          | 0          | 0          |   0.0 |  0.00
Modify  | 0          | 0          | 0          |   0.0 |  0.00
Other   |            | 0.6877     |            |       | 55.51

Nlocal:             43 ave          55 max          36 min
Histogram: 16 16 0 0 0 0 0 0 8 8
Nghost:         3297.5 ave        3344 max        3267 min
Histogram: 16 4 12 0 0 0 0 0 0 16
Neighs:          15503 ave       19965 max       12770 min
Histogram: 15 17 0 0 0 0 0 0 8 8

Total # of neighbors = 744144
Ave neighs/atom = 360.53488
Ave special neighs/atom = 6.372093
Neighbor list builds = 1
Dangerous builds = 0
Generated 10 of 10 mixed pair_coeff terms from arithmetic mixing rule
Setting up Verlet run ...
  Unit style    : real
  Current step  : 137
  Time step     : 1
WARNING: Inconsistent image flags (../domain.cpp:815)
Per MPI rank memory allocation (min/avg/max) = 11.92 | 11.92 | 11.93 Mbytes
   Step          Temp          Volume    
       137   100            36443.376    
      1000   105.93332      36443.376    
      2000   105.90603      36443.376    
      3000   99.899071      36443.376    
      4000   102.86214      36443.376    
      5000   98.895929      36443.376    
      6000   101.05808      36443.376    
      7000   97.05298       36443.376    
      8000   98.751116      36443.376    
      9000   99.383277      36443.376    
     10000   103.45425      36443.376    
     11000   102.26662      36443.376    
     12000   102.41065      36443.376    
     13000   99.073506      36443.376    
     14000   98.518372      36443.376    
     15000   98.343317      36443.376    
     16000   100.02386      36443.376    
     17000   99.219992      36443.376    
     18000   102.11829      36443.376    
     19000   98.795134      36443.376    
     20000   102.16409      36443.376    
     21000   100.56949      36443.376    
     22000   98.526331      36443.376    
     23000   102.03128      36443.376    
     24000   96.968505      36443.376    
     25000   101.74771      36443.376    
     26000   99.596014      36443.376    
     27000   100.9275       36443.376    
     28000   96.565052      36443.376    
     29000   100.39756      36443.376    
     30000   99.108304      36443.376    
     31000   101.97589      36443.376    
     32000   100.58967      36443.376    
     33000   99.776373      36443.376    
     34000   97.853864      36443.376    
     35000   102.13086      36443.376    
     36000   97.64116       36443.376    
     37000   102.52411      36443.376    
     38000   93.835561      36443.376    
     39000   98.0379        36443.376    
     40000   101.12679      36443.376    
     41000   100.55417      36443.376    
     42000   100.36087      36443.376    
     43000   101.16025      36443.376    
     44000   99.598326      36443.376    
     45000   97.668762      36443.376    
     46000   100.56596      36443.376    
     47000   97.555305      36443.376    
     48000   99.261412      36443.376    
     49000   100.97244      36443.376    
     50000   101.07909      36443.376    
     51000   102.55066      36443.376    
     52000   100.64235      36443.376    
     53000   101.71108      36443.376    
     54000   102.3076       36443.376    
     55000   100.805        36443.376    
     56000   102.17036      36443.376    
     57000   98.996906      36443.376    
     58000   99.593104      36443.376    
     59000   102.22642      36443.376    
     60000   102.56792      36443.376    
     61000   95.955749      36443.376    
     62000   101.4296       36443.376    
     63000   96.679418      36443.376    
     64000   98.159579      36443.376    
     65000   103.63549      36443.376    
     66000   98.734892      36443.376    
     67000   98.998036      36443.376    
     68000   100.25946      36443.376    
     69000   98.571006      36443.376    
     70000   100.11414      36443.376    
     71000   100.47014      36443.376    
     72000   99.585607      36443.376    
     73000   104.60841      36443.376    
     74000   98.348058      36443.376    
     75000   97.940734      36443.376    
     76000   100.80383      36443.376    
     77000   101.01849      36443.376    
     78000   101.58896      36443.376    
     79000   99.540036      36443.376    
     80000   98.911991      36443.376    
     81000   100.23835      36443.376    
     82000   100.70566      36443.376    
     83000   98.698284      36443.376    
     84000   99.993003      36443.376    
     85000   101.99785      36443.376    
     86000   101.70104      36443.376    
     87000   100.47187      36443.376    
     88000   99.984039      36443.376    
     89000   98.197416      36443.376    
     90000   101.10372      36443.376    
     91000   98.133893      36443.376    
     92000   100.82303      36443.376    
     93000   99.606993      36443.376    
     94000   97.663328      36443.376    
     95000   97.807828      36443.376    
     96000   100.43351      36443.376    
     97000   98.643664      36443.376    
     98000   99.541945      36443.376    
     99000   104.56703      36443.376    
    100000   100.72605      36443.376    
    101000   101.94542      36443.376    
    102000   98.88472       36443.376    
    103000   102.74763      36443.376    
    104000   103.5804       36443.376    
    105000   98.181039      36443.376    
    106000   103.11482      36443.376    
    107000   98.67768       36443.376    
    108000   101.71864      36443.376    
    109000   98.720759      36443.376    
    110000   98.83822       36443.376    
    111000   99.773199      36443.376    
    112000   99.644758      36443.376    
    113000   102.45597      36443.376    
    114000   102.63382      36443.376    
    115000   99.773819      36443.376    
    116000   101.06073      36443.376    
    117000   101.41508      36443.376    
    118000   98.691801      36443.376    
    119000   102.27843      36443.376    
    120000   100.50648      36443.376    
    121000   98.810562      36443.376    
    122000   98.714556      36443.376    
    123000   102.25911      36443.376    
    124000   100.28997      36443.376    
    125000   99.604464      36443.376    
    126000   101.04804      36443.376    
    127000   102.09518      36443.376    
    128000   98.904804      36443.376    
    129000   98.300831      36443.376    
    130000   98.833999      36443.376    
    131000   100.99547      36443.376    
    132000   100.76651      36443.376    
    133000   104.172        36443.376    
    134000   99.060494      36443.376    
    135000   97.31244       36443.376    
    136000   102.67007      36443.376    
    137000   100.71311      36443.376    
    138000   101.94114      36443.376    
    139000   98.971745      36443.376    
    140000   101.91067      36443.376    
    141000   100.05359      36443.376    
    142000   101.02933      36443.376    
    143000   101.77399      36443.376    
    144000   100.09176      36443.376    
    145000   100.22427      36443.376    
    146000   101.13395      36443.376    
    147000   98.986342      36443.376    
    148000   101.74436      36443.376    
    149000   98.281258      36443.376    
    150000   100.84584      36443.376    
    151000   96.936873      36443.376    
    152000   99.850856      36443.376    
    153000   97.767745      36443.376    
    154000   99.791899      36443.376    
    155000   102.10544      36443.376    
    156000   98.742904      36443.376    
    157000   97.258216      36443.376    
    158000   98.940746      36443.376    
    159000   100.34157      36443.376    
    160000   100.40188      36443.376    
    161000   98.930672      36443.376    
    162000   97.829253      36443.376    
    163000   99.717862      36443.376    
    164000   101.62611      36443.376    
    165000   100.96434      36443.376    
    166000   98.761967      36443.376    
    167000   100.10765      36443.376    
    168000   97.885272      36443.376    
    169000   100.91539      36443.376    
    170000   100.72973      36443.376    
    171000   102.73341      36443.376    
    172000   98.026276      36443.376    
    173000   96.009902      36443.376    
    174000   101.24863      36443.376    
    175000   100.31476      36443.376    
    176000   99.12177       36443.376    
    177000   100.25635      36443.376    
    178000   100.14349      36443.376    
    179000   99.846885      36443.376    
    180000   97.4748        36443.376    
    181000   99.695508      36443.376    
    182000   102.22797      36443.376    
    183000   97.835293      36443.376    
    184000   100.52373      36443.376    
    185000   100.08732      36443.376    
    186000   97.214428      36443.376    
    187000   100.13842      36443.376    
    188000   100.51797      36443.376    
    189000   98.270906      36443.376    
    190000   102.02464      36443.376    
    191000   99.573177      36443.376    
    192000   98.702026      36443.376    
    193000   97.098428      36443.376    
    194000   99.334715      36443.376    
    195000   97.364541      36443.376    
    196000   98.939069      36443.376    
    197000   99.146375      36443.376    
    198000   101.72037      36443.376    
    199000   100.16604      36443.376    
    200000   99.959715      36443.376    
    200137   100.24934      36443.376    
Loop time of 101.293 on 48 procs for 200000 steps with 2064 atoms

Performance: 170.595 ns/day, 0.141 hours/ns, 1974.477 timesteps/s, 4.075 Matom-step/s
99.4% CPU use with 48 MPI tasks x no OpenMP threads

MPI task timing breakdown:
Section |  min time  |  avg time  |  max time  |%varavg| %total
---------------------------------------------------------------
Pair    | 16.12      | 23.558     | 32.959     | 123.5 | 23.26
Bond    | 1.7649     | 2.3009     | 3.1402     |  31.5 |  2.27
Neigh   | 0          | 0          | 0          |   0.0 |  0.00
Comm    | 57.105     | 67.645     | 75.151     |  78.3 | 66.78
Output  | 0.0033728  | 0.0036456  | 0.0070376  |   0.8 |  0.00
Modify  | 3.4052     | 4.3709     | 5.6607     |  24.7 |  4.32
Other   |            | 3.414      |            |       |  3.37

Nlocal:             43 ave          54 max          33 min
Histogram: 12 4 4 8 4 0 0 0 0 16
Nghost:           3278 ave        3334 max        3237 min
Histogram: 16 8 8 0 0 0 0 0 0 16
Neighs:          15503 ave       19653 max       11822 min
Histogram: 8 8 4 8 4 0 0 0 0 16

Total # of neighbors = 744144
Ave neighs/atom = 360.53488
Ave special neighs/atom = 6.372093
Neighbor list builds = 0
Dangerous builds = 0
Generated 10 of 10 mixed pair_coeff terms from arithmetic mixing rule
Setting up Verlet run ...
  Unit style    : real
  Current step  : 200137
  Time step     : 1
WARNING: Inconsistent image flags (../domain.cpp:815)
Per MPI rank memory allocation (min/avg/max) = 11.93 | 11.94 | 11.95 Mbytes
   Step          Temp          Volume    
    200137   100.24934      36443.376    
    201000   100.02683      37427.56     
    202000   99.383949      36766.844    
    203000   99.859245      35007.239    
    204000   101.79373      34785.09     
    205000   100.51534      34889.943    
    206000   100.89943      34241.199    
    207000   99.917178      34677.549    
    208000   100.25703      34668.415    
    209000   100.54443      34753.343    
    210000   98.530035      34610.162    
    211000   102.31518      34677.628    
    212000   99.278002      34721.409    
    213000   98.632995      34785.686    
    214000   100.34131      34800.996    
    215000   100.10701      34778.398    
    216000   100.66737      34575.231    
    217000   101.28668      34565.368    
    218000   97.607542      34706.913    
    219000   98.200804      34786.412    
    220000   100.09741      34594.727    
    221000   98.475153      34726.536    
    222000   98.886979      34564.644    
    223000   101.6433       34718.657    
    224000   99.996777      34721.369    
    225000   100.08926      34699.727    
    226000   97.520282      34677.941    
    227000   101.46512      34639.46     
    228000   99.600531      34701.39     
    229000   100.27096      34622.67     
    230000   100.1951       34782.115    
    231000   98.805342      34607.154    
    232000   102.76206      34810.497    
    233000   99.339768      34370.288    
    234000   99.814349      34800.155    
    235000   99.360075      34691.655    
    236000   100.30521      34653.822    
    237000   100.56041      34866.098    
    238000   98.865028      34463.513    
    239000   97.924301      34628.802    
    240000   100.22783      34589.044    
    241000   98.937942      34755.894    
    242000   102.56856      34738.856    
    243000   99.489975      34670.686    
    244000   98.384631      34607.465    
    245000   100.2556       34566.376    
    246000   101.8017       34791.581    
    247000   97.634542      34621.872    
    248000   102.06374      34584.971    
    249000   96.687042      34546.075    
    250000   100.8668       34551.358    
    251000   100.39643      34818.785    
    252000   95.737124      34537.835    
    253000   100.38838      34999.888    
    254000   98.72414       34528.09     
    255000   100.22816      34695.467    
    256000   99.829505      34629.056    
    257000   98.277398      34770.43     
    258000   99.688708      34644.728    
    259000   99.233123      34730.745    
    260000   101.74776      34555.082    
    261000   98.581148      34701.84     
    262000   99.996575      34603.95     
    263000   100.34405      34713.274    
    264000   99.760219      34764.387    
    265000   98.943962      34486.72     
    266000   102.38495      34770.192    
    267000   101.66855      34664.66     
    268000   99.917236      34712.423    
    269000   100.51042      34633.393    
    270000   102.01637      34674.197    
    271000   97.924737      34477.205    
    272000   99.855388      34813.735    
    273000   101.165        34702.304    
    274000   100.90074      34696.731    
    275000   101.89846      34593.805    
    276000   100.87053      34536.407    
    277000   101.05924      34665.233    
    278000   99.960993      34338.193    
    279000   98.731388      34987.287    
    280000   99.545078      34493.241    
    281000   99.968159      34706.132    
    282000   99.822928      34508.682    
    283000   101.62278      34711.951    
    284000   98.938166      34732.561    
    285000   97.578346      34698.627    
    286000   103.21303      34960.266    
    287000   101.01482      34404.778    
    288000   101.91656      34736.678    
    289000   101.75366      34338.056    
    290000   98.527877      34611.252    
    291000   99.726834      34685.479    
    292000   98.810982      34674.299    
    293000   101.20902      34557.799    
    294000   100.50776      34675.527    
    295000   100.48846      34761.19     
    296000   100.39448      34776.569    
    297000   97.819561      34831.125    
    298000   102.42107      34487.439    
    299000   97.328723      34557.145    
    300000   103.19661      34493.412    
    301000   98.773743      34796.133    
    302000   100.70685      34664.174    
    303000   98.641735      34658.302    
    304000   101.47048      34687.256    
    305000   100.00862      34580.769    
    306000   96.415003      34698.478    
    307000   102.35562      34657.482    
    308000   102.08597      34751.032    
    309000   98.851594      34588.037    
    310000   97.691769      34661.729    
    311000   101.17784      34732.387    
    312000   97.466522      34489.725    
    313000   100.36433      34801.903    
    314000   101.8623       34623.485    
    315000   101.83518      34742.435    
    316000   99.434491      34583.398    
    317000   97.949676      34726.432    
    318000   102.02094      34597.952    
    319000   97.195303      34436.105    
    320000   98.438084      34900.005    
    321000   98.809372      34537.857    
    322000   97.922309      34842.004    
    323000   100.99541      34717.48     
    324000   100.25874      34574.159    
    325000   95.780425      34647.62     
    326000   96.464479      34569.508    
    327000   102.41406      34893.435    
    328000   98.743325      34567.183    
    329000   101.34595      34800.945    
    330000   101.42543      34509.556    
    331000   103.56117      34624.166    
    332000   101.11185      34604.269    
    333000   99.728764      34691.327    
    334000   100.70849      34707.583    
    335000   99.70589       34555.348    
    336000   99.228961      34765.555    
    337000   102.20222      34462.012    
    338000   98.546078      34827.32     
    339000   98.787381      34684.708    
    340000   98.364677      34792.688    
    341000   102.57863      34691.042    
    342000   100.5465       34508.856    
    343000   104.45062      34853.159    
    344000   99.003203      34399.029    
    345000   100.4114       34726.7      
    346000   99.636306      34548.732    
    347000   98.576841      34434.566    
    348000   100.93293      34741.297    
    349000   101.53589      34619.719    
    350000   99.441948      34757.281    
    351000   99.182764      34652.156    
    352000   99.238931      34781.559    
    353000   100.6836       34514.707    
    354000   100.82372      34700.243    
    355000   100.33687      34648.568    
    356000   100.82946      34724.145    
    357000   100.65766      34678.978    
    358000   99.517088      34531.688    
    359000   99.94102       34674.348    
    360000   102.31668      34713.178    
    361000   101.45412      34830.284    
    362000   100.11584      34670.495    
    363000   101.39274      34544.337    
    364000   99.171937      34656.733    
    365000   101.76187      34522.296    
    366000   98.926048      34766.609    
    367000   99.505481      34701.37     
    368000   104.65978      34717.587    
    369000   99.507212      34335.508    
    370000   98.730944      34708.179    
    371000   99.441082      34531.193    
    372000   99.533428      34695.525    
    373000   99.946837      34793.295    
    374000   102.1343       34559.706    
    375000   96.281894      34737.581    
    376000   100.94361      34664.054    
    377000   100.65127      34686.517    
    378000   103.23772      34806.242    
    379000   98.602636      34601.379    
    380000   98.034966      34560.705    
    381000   99.866863      34643.007    
    382000   98.5053        34573.331    
    383000   100.57875      34813.031    
    384000   104.49958      34560.574    
    385000   98.549784      34610.002    
    386000   102.14818      34613.388    
    387000   98.392216      34663.643    
    388000   100.79221      34663.885    
    389000   99.504729      34799.579    
    390000   99.956745      34498.962    
    391000   99.947529      34591.141    
    392000   98.882316      34684.987    
    393000   98.852681      34534.806    
    394000   101.44899      34857.311    
    395000   102.41743      34557.295    
    396000   102.3772       34761.076    
    397000   99.135936      34455.377    
    398000   100.40934      34735.104    
    399000   97.505733      34621.479    
    400000   103.12348      34591.597    
    401000   102.86026      34728.237    
    402000   102.77114      34628.567    
    403000   100.27859      34642.735    
    404000   101.28558      34610.573    
    405000   102.97304      34639.211    
    406000   99.434615      34530.357    
    407000   101.78951      34653.083    
    408000   97.310896      34801.246    
    409000   101.03148      34515.554    
    410000   103.16183      34892.068    
    411000   100.34385      34596.906    
    412000   100.18864      34575.491    
    413000   100.98586      34745.462    
    414000   100.91254      34677.182    
    415000   100.45965      34726.192    
    416000   96.999609      34792.799    
    417000   101.92149      34467.462    
    418000   97.35117       34563.244    
    419000   97.623606      34548.751    
    420000   102.3451       34591.911    
    421000   101.2541       34626.358    
    422000   100.03267      34575.177    
    423000   98.042795      34507.491    
    424000   100.80874      34820.387    
    425000   99.917648      34627.357    
    426000   101.4503       34826.6      
    427000   101.21637      34871.115    
    428000   100.94311      34518.8      
    429000   100.66646      34731.828    
    430000   101.07265      34363.407    
    431000   102.58776      34750.61     
    432000   99.780735      34555.404    
    433000   100.23895      34664.019    
    434000   99.246525      34592.709    
    435000   102.56847      34662.088    
    436000   101.80091      34579.582    
    437000   102.62811      34697.155    
    438000   100.98839      34771.896    
    439000   102.42872      34627.436    
    440000   99.512375      34687.206    
    441000   104.14943      34496.967    
    442000   101.31452      34741.491    
    443000   102.25461      34697.106    
    444000   100.9583       34658.918    
    445000   101.61877      34735.834    
    446000   99.154463      34385.19     
    447000   96.816977      34620.94     
    448000   98.673818      34567.234    
    449000   101.6296       34768.8      
    450000   98.755364      34688.627    
    451000   96.793322      34632.188    
    452000   100.91857      34719.428    
    453000   99.158836      34496.572    
    454000   100.39686      34761.413    
    455000   101.23058      34590.27     
    456000   99.079846      34583.013    
    457000   97.118901      34717.931    
    458000   99.7856        34532.677    
    459000   100.08073      34858.787    
    460000   101.9084       34498.973    
    461000   99.456292      34734.699    
    462000   98.05718       34700.199    
    463000   98.157624      34549.158    
    464000   100.42157      34905.411    
    465000   98.488779      34463.384    
    466000   101.44473      34775.964    
    467000   100.55462      34521.412    
    468000   97.505088      34718.715    
    469000   97.038505      34513.303    
    470000   101.79206      34826.986    
    471000   99.808648      34607.277    
    472000   99.566312      34687.192    
    473000   100.91036      34886.096    
    474000   98.931847      34377.306    
    475000   99.398056      34997.809    
    476000   99.343628      34303.16     
    477000   98.257673      34945.183    
    478000   99.934526      34572.514    
    479000   98.630818      34583.379    
    480000   99.803682      34843.624    
    481000   101.34286      34445.402    
    482000   99.643463      34749.028    
    483000   99.363285      34554.74     
    484000   100.17067      34733.402    
    485000   100.08561      34590.969    
    486000   99.521148      34705.277    
    487000   99.998664      34701.05     
    488000   101.20835      34555.203    
    489000   97.621972      34854.213    
    490000   100.91596      34494.65     
    491000   98.436449      34862.849    
    492000   98.128035      34589.828    
    493000   101.82084      34595.025    
    494000   97.507539      34647.371    
    495000   100.20361      34470.25     
    496000   97.161501      34926.381    
    497000   97.117854      34454.811    
    498000   101.72599      34793.558    
    499000   98.574513      34606.988    
    500000   99.796719      34577.877    
    501000   98.710512      34820.546    
    502000   100.62778      34635.569    
    503000   97.205328      34678.391    
    504000   97.98146       34464.831    
    505000   101.62979      34663.184    
    506000   101.28284      34540.469    
    507000   100.17096      34754.726    
    508000   97.044966      34654.237    
    509000   98.177101      34676.305    
    510000   98.532075      34571.069    
    511000   101.21071      34612.485    
    512000   98.34856       34774.945    
    513000   99.849239      34674.456    
    514000   96.265723      34913.699    
    515000   100.48734      34559.039    
    516000   100.46354      34637.776    
    517000   96.74511       34583.238    
    518000   100.36394      34802.06     
    519000   98.628368      34657.824    
    520000   101.65217      34594.825    
    521000   100.54026      34608.664    
    522000   96.09645       34411.099    
    523000   101.415        34742.286    
    524000   99.99263       34643.496    
    525000   98.948402      34753.727    
    526000   100.93111      34481.288    
    527000   99.412629      34674.193    
    528000   101.35716      34593.373    
    529000   97.223021      34750.728    
    530000   100.05508      34697.189    
    531000   102.34174      34776.284    
    532000   99.269161      34590.547    
    533000   96.640364      34510.011    
    534000   102.24294      34847.77     
    535000   97.910605      34461.941    
    536000   100.29584      34845.52     
    537000   99.371713      34588.719    
    538000   97.961133      34598.675    
    539000   101.93531      34662.458    
    540000   98.590949      34814.228    
    541000   98.741738      34541.925    
    542000   100.64954      34631.087    
    543000   101.97996      34654.02     
    544000   101.55067      34473.335    
    545000   101.16016      34749.691    
    546000   98.397328      34574.39     
    547000   103.01127      34989.773    
    548000   98.789205      34381.101    
    549000   98.730979      34792.967    
    550000   100.42927      34551.369    
    551000   98.72673       34500.791    
    552000   101.68602      34760.887    
    553000   101.17251      34582.43     
    554000   101.10276      34628.81     
    555000   100.4169       34440.103    
    556000   101.49402      34684.611    
    557000   100.18793      34481.66     
    558000   101.66768      34844.8      
    559000   100.08773      34752.122    
    560000   98.329615      34601.671    
    561000   97.054762      34655.25     
    562000   99.311949      34674.871    
    563000   100.95171      34648.328    
    564000   100.80908      34593.635    
    565000   99.707951      34713.714    
    566000   101.08833      34499.497    
    567000   99.603875      34511.106    
    568000   101.38414      34753.012    
    569000   101.63097      34784.988    
    570000   99.043978      34580.304    
    571000   98.5603        34737.525    
    572000   98.028629      34664.922    
    573000   98.086583      34585.942    
    574000   99.202857      34984.012    
    575000   99.509559      34493.958    
    576000   98.687427      34576.247    
    577000   99.531991      34578.601    
    578000   97.632232      34639.922    
    579000   102.86117      34852.785    
    580000   101.27749      34576.262    
    581000   98.766355      34778.176    
    582000   100.78801      34576.598    
    583000   98.768067      34690.736    
    584000   97.720913      34800.291    
    585000   101.6719       34737.219    
    586000   99.568612      34574.612    
    587000   99.006047      34582.171    
    588000   98.977843      34537.41     
    589000   100.15415      34727.85     
    590000   102.54749      34714.195    
    591000   99.297866      34863.024    
    592000   98.999921      34571.512    
    593000   99.956855      34765.42     
    594000   99.669519      34699.083    
    595000   98.064759      34806.172    
    596000   97.353736      34621.381    
    597000   100.72098      34681.086    
    598000   99.687186      34615.713    
    599000   97.55973       34392.072    
    600000   96.192524      34865.316    
    601000   101.21828      34586.852    
    602000   98.671041      34842.325    
    603000   100.26538      34623.97     
    604000   99.292051      34709.629    
    605000   99.578352      34707.501    
    606000   99.116357      34703.144    
    607000   98.444753      34770.178    
    608000   95.711339      34435.012    
    609000   99.735225      34736.035    
    610000   96.512307      34527.035    
    611000   102.77954      34592.736    
    612000   100.40967      34769.191    
    613000   101.81788      34810.836    
    614000   98.881848      34598.022    
    615000   97.493031      34627.604    
    616000   100.63246      34820.254    
    617000   101.39521      34565.545    
    618000   97.368523      34849.899    
    619000   98.719138      34647.95     
    620000   99.642986      34488.745    
    621000   103.07216      34766.823    
    622000   100.90416      34542.016    
    623000   99.771219      34816.899    
    624000   98.512933      34561.917    
    625000   98.564704      34741.304    
    626000   97.441393      34576.731    
    627000   98.663799      34728.166    
    628000   102.58187      34638.613    
    629000   101.03537      34698.149    
    630000   101.66412      34557.641    
    631000   103.7197       34627.567    
    632000   102.19868      34799.715    
    633000   98.795396      34586.028    
    634000   97.174812      34807.379    
    635000   102.4618       34646.851    
    636000   100.67767      34536.856    
    637000   99.263466      34788.224    
    638000   100.24445      34583.884    
    639000   101.1916       34767.198    
    640000   98.214445      34585.298    
    641000   100.4602       34605.908    
    642000   101.06212      34623.287    
    643000   100.04639      34525.514    
    644000   99.104132      34763.87     
    645000   99.76487       34690.133    
    646000   101.82127      34604.322    
    647000   96.684411      34636.081    
    648000   103.65462      34730.693    
    649000   100.14682      34650.06     
    650000   101.98678      34700.047    
    651000   100.26981      34649.612    
    652000   98.44228       34418.137    
    653000   97.612257      34634.607    
    654000   99.147404      34731.821    
    655000   101.52995      34657.019    
    656000   100.22813      34605.908    
    657000   99.667963      34619.138    
    658000   100.03108      34637.553    
    659000   99.048482      34739.517    
    660000   102.51826      34709.474    
    661000   97.246235      34639.565    
    662000   101.3677       34468.381    
    663000   99.544329      34695.698    
    664000   100.92465      34558.405    
    665000   98.966455      34888.598    
    666000   102.0388       34744.618    
    667000   101.42767      34607.773    
    668000   98.14408       34547.203    
    669000   101.53189      34603.631    
    670000   103.51994      34832.849    
    671000   96.976951      34607.568    
    672000   99.774563      34834.386    
    673000   100.06933      34496.115    
    674000   94.98634       34484.035    
    675000   99.634932      34650.304    
    676000   99.622615      34751.179    
    677000   97.512443      34749.098    
    678000   100.47441      34676.525    
    679000   101.94604      34568.985    
    680000   100.86066      34573.535    
    681000   99.178373      34744.711    
    682000   101.5867       34848.155    
    683000   101.45115      34516.09     
    684000   101.45971      34552.121    
    685000   101.38486      34464.82     
    686000   100.04602      34661.648    
    687000   101.42399      34811.681    
    688000   100.95489      34678.571    
    689000   97.193601      34641.975    
    690000   99.034224      34508.525    
    691000   99.836706      34738.147    
    692000   100.15529      34760.878    
    693000   98.929486      34716.611    
    694000   99.706423      34559.576    
    695000   98.948568      34611.938    
    696000   99.472021      34411.298    
    697000   99.95212       34826.177    
    698000   98.264945      34616.02     
    699000   99.316687      34719.854    
    700000   96.520555      34506.183    
    701000   102.53096      34529.622    
    702000   97.293404      34714.32     
    703000   100.5826       34830.246    
    704000   101.81292      34580.148    
    705000   100.2733       34782.344    
    706000   100.78604      34372.084    
    707000   101.26152      34598.954    
    708000   99.272416      34759.504    
    709000   100.06234      34740.041    
    710000   98.164227      34707.506    
    711000   98.414349      34604.644    
    712000   102.82395      34467.072    
    713000   101.0375       34598.501    
    714000   102.37711      34731.148    
    715000   98.286918      34700.414    
    716000   98.939089      34823.834    
    717000   96.659336      34448.691    
    718000   95.299036      34661.001    
    719000   101.78467      34552.401    
    720000   100.57688      34767.144    
    721000   99.847928      34657.42     
    722000   99.922032      34630.889    
    723000   101.20554      34341.669    
    724000   96.438285      34849.03     
    725000   99.660949      34634.124    
    726000   100.72592      34860.286    
    727000   101.66251      34681.561    
    728000   98.632957      34436.696    
    729000   99.857774      34575.487    
    730000   103.17752      34579.196    
    731000   98.535019      34713.231    
    732000   98.704027      34710.698    
    733000   102.53508      34585.51     
    734000   99.261743      34587.752    
    735000   98.627673      34730.846    
    736000   100.24732      34621.527    
    737000   101.24513      34947.733    
    738000   99.702539      34601.625    
    739000   99.946199      34553.955    
    740000   97.647082      34531.547    
    741000   100.02479      34579.833    
    742000   98.384117      34602.218    
    743000   98.878599      34792.24     
    744000   99.859677      34575.984    
    745000   99.982621      34503.031    
    746000   100.20279      34854.596    
    747000   100.64304      34592.078    
    748000   99.032605      34834.569    
    749000   100.71425      34747.855    
    750000   100.52475      34417.598    
    751000   100.61607      34830.613    
    752000   99.114184      34510.992    
    753000   98.806801      34787.937    
    754000   99.907866      34790.509    
    755000   101.02143      34591.74     
    756000   98.986293      34870.007    
    757000   102.35358      34492.525    
    758000   97.327891      34667.8      
    759000   99.88743       34610.849    
    760000   100.61062      34668.671    
    761000   101.14541      34557.635    
    762000   98.01001       34641.98     
    763000   99.593828      34652.463    
    764000   102.41801      34259.085    
    765000   100.7863       35104.55     
    766000   99.337754      34419.816    
    767000   101.6235       35033.493    
    768000   97.664831      34621.301    
    769000   99.709924      34551.029    
    770000   104.57552      34695.477    
    771000   101.878        34450.299    
    772000   101.57919      34884.682    
    773000   95.581909      34508.966    
    774000   97.241496      34749.173    
    775000   99.601521      34618.136    
    776000   102.19653      34602.613    
    777000   97.718608      34780.453    
    778000   99.995695      34786.703    
    779000   97.469541      34579.708    
    780000   103.21911      34592.154    
    781000   98.844563      34681.676    
    782000   97.169991      34597.381    
    783000   102.70541      34658.074    
    784000   100.98011      34593.093    
    785000   98.994528      34653.531    
    786000   95.815917      34507.221    
    787000   101.42788      34827.272    
    788000   101.54429      34686.711    
    789000   100.55319      34695.799    
    790000   97.38737       34631.461    
    791000   100.89234      34517.674    
    792000   99.564637      34700.164    
    793000   101.38656      34515.416    
    794000   100.5418       34801.578    
    795000   100.09653      34406.387    
    796000   99.397624      34672.392    
    797000   97.439214      34703.101    
    798000   99.238713      34664.605    
    799000   101.34838      34727.411    
    800000   99.816434      34797.858    
    801000   100.54243      34701.242    
    802000   99.950395      34612.647    
    803000   99.54897       34767.388    
    804000   99.680954      34641.643    
    805000   100.34473      34688.588    
    806000   101.08133      34643.655    
    807000   98.382468      34406.371    
    808000   101.30707      34840.946    
    809000   102.21319      34366.651    
    810000   102.24926      34957.079    
    811000   100.57152      34558.518    
    812000   98.797888      34835.414    
    813000   102.11198      34679.473    
    814000   97.105047      34693.234    
    815000   102.18401      34676.33     
    816000   101.64262      34514.136    
    817000   98.525514      34849.998    
    818000   98.82223       34472.259    
    819000   97.549032      34753.838    
    820000   100.32077      34478.59     
    821000   102.38778      34703.638    
    822000   99.713297      34663.698    
    823000   97.172503      34665.677    
    824000   97.516042      34872.652    
    825000   102.16127      34556.011    
    826000   100.01601      34811.821    
    827000   96.860799      34429.186    
    828000   102.02414      34798.926    
    829000   97.532994      34615.637    
    830000   101.60769      34808.672    
    831000   99.080144      34634.028    
    832000   100.32013      34657.399    
    833000   102.56765      34672.914    
    834000   101.59633      34525.706    
    835000   102.57626      34847.381    
    836000   99.833296      34592.518    
    837000   103.47227      34855.099    
    838000   98.884386      34481.53     
    839000   97.966895      34625.888    
    840000   100.72453      34740.642    
    841000   97.357509      34501.075    
    842000   100.4616       34900.991    
    843000   96.531897      34560.173    
    844000   103.02271      34804.693    
    845000   98.626032      34549.406    
    846000   98.250754      34613.601    
    847000   102.19073      34791.837    
    848000   100.46976      34471.021    
    849000   99.964407      34853.965    
    850000   101.92604      34360.872    
    851000   99.749685      34903.177    
    852000   98.808864      34515.327    
    853000   101.25598      34732.436    
    854000   100.70406      34623.619    
    855000   98.476077      34411.907    
    856000   99.882837      34767.976    
    857000   102.53978      34367.355    
    858000   100.99035      34986.598    
    859000   98.081903      34517.044    
    860000   104.09439      34797.127    
    861000   100.31431      34556.588    
    862000   96.447046      34700.233    
    863000   98.835992      34705.68     
    864000   98.454352      34538.709    
    865000   98.873318      34638.762    
    866000   101.75014      34518.515    
    867000   101.67352      34668.548    
    868000   100.25096      34580.063    
    869000   97.130475      34618.424    
    870000   99.427413      34751.766    
    871000   99.202505      34478.865    
    872000   97.641944      35032.46     
    873000   100.4537       34398.918    
    874000   98.237199      34750.174    
    875000   99.424908      34581.736    
    876000   101.4782       34487.912    
    877000   97.279555      34827.074    
    878000   103.20895      34573.195    
    879000   98.622072      34794.374    
    880000   101.92887      34504.74     
    881000   99.03974       34761.129    
    882000   99.585787      34582.353    
    883000   98.929047      34761.488    
    884000   95.732595      34632.377    
    885000   100.37536      34543.068    
    886000   100.68378      34635.724    
    887000   99.261848      34664.621    
    888000   98.475624      34748.758    
    889000   102.77745      34628.154    
    890000   99.090399      34642.204    
    891000   100.36245      34580.004    
    892000   102.34748      34714.572    
    893000   101.86174      34652.1      
    894000   98.21017       34706.354    
    895000   101.44889      34482.552    
    896000   99.456455      34702.237    
    897000   101.55586      34574.724    
    898000   98.983424      34767.33     
    899000   100.65914      34701.649    
    900000   103.58143      34553.311    
    901000   97.511534      34721.362    
    902000   99.901455      34499.577    
    903000   99.140631      34768.995    
    904000   97.338857      34688.731    
    905000   101.56926      34541.419    
    906000   102.35485      34624.281    
    907000   100.39379      34636.73     
    908000   97.134904      34621.822    
    909000   101.74418      34844.603    
    910000   99.919045      34521.153    
    911000   101.87569      34605.184    
    912000   103.61735      34694.853    
    913000   99.657501      34635.698    
    914000   100.95369      34745.952    
    915000   102.10198      34594.421    
    916000   100.59728      34519.205    
    917000   100.38771      34525.918    
    918000   99.119892      34726.212    
    919000   101.20304      34722.734    
    920000   101.30506      34742.22     
    921000   99.200625      34523.115    
    922000   98.198113      34720.039    
    923000   97.921765      34509.667    
    924000   97.508999      34560.817    
    925000   97.520335      34868.307    
    926000   99.438112      34490.667    
    927000   98.633754      34739.579    
    928000   100.36973      34393.935    
    929000   99.184263      34630.064    
    930000   102.57972      34662.234    
    931000   98.331899      34735.515    
    932000   97.036509      34667.677    
    933000   97.139784      34536.988    
    934000   101.39476      34622.958    
    935000   102.33682      34591.279    
    936000   100.729        34983.437    
    937000   104.44859      34496.911    
    938000   102.24318      34825.348    
    939000   100.09985      34394.187    
    940000   102.39535      34642.332    
    941000   100.44925      34627.57     
    942000   99.504345      34583.237    
    943000   100.31061      34929.241    
    944000   99.455528      34469.228    
    945000   98.032664      34712.433    
    946000   96.795043      34447.21     
    947000   103.83968      34827.46     
    948000   98.766408      34666.405    
    949000   99.323263      34725.003    
    950000   97.303846      34722.05     
    951000   98.707073      34482.107    
    952000   96.550778      34696.08     
    953000   96.828634      34508.873    
    954000   99.418261      34815.026    
    955000   99.617839      34543.466    
    956000   94.486768      34597.343    
    957000   102.45181      34710.19     
    958000   99.716731      34435.321    
    959000   100.80376      34923.021    
    960000   97.901589      34568.159    
    961000   102.37129      34746.152    
    962000   98.371763      34466.579    
    963000   100.29863      34682.839    
    964000   101.99574      34686.301    
    965000   98.683371      34451.356    
    966000   100.99777      34968.165    
    967000   98.438393      34423.604    
    968000   99.576446      34823.009    
    969000   101.49632      34649.716    
    970000   98.717543      34789.729    
    971000   99.94338       34706.239    
    972000   101.30131      34620.734    
    973000   97.104666      34900.681    
    974000   98.555508      34389.007    
    975000   105.51593      34827.125    
    976000   99.617848      34645.411    
    977000   100.54343      34638.923    
    978000   98.227831      34730.985    
    979000   100.72654      34663.422    
    980000   100.8277       34760.232    
    981000   98.958254      34455.639    
    982000   97.589022      34889.862    
    983000   100.51667      34588.106    
    984000   102.09362      34772.544    
    985000   100.36345      34622.285    
    986000   101.07549      34493.704    
    987000   99.998821      34694.896    
    988000   101.50047      34543.862    
    989000   96.722017      34906.353    
    990000   98.538887      34538.756    
    991000   100.44644      34685.808    
    992000   100.76729      34650.615    
    993000   99.598497      34642.378    
    994000   101.86339      34736.67     
    995000   95.541198      34606.506    
    996000   100.69227      34739.253    
    997000   99.918215      34398.672    
    998000   100.33786      34758.844    
    999000   100.86931      34501.683    
   1000000   100.13572      34766.388    
   1000137   102.95633      34698.687    
Loop time of 433.314 on 48 procs for 800000 steps with 2064 atoms

Performance: 159.515 ns/day, 0.150 hours/ns, 1846.238 timesteps/s, 3.811 Matom-step/s
99.5% CPU use with 48 MPI tasks x no OpenMP threads

MPI task timing breakdown:
Section |  min time  |  avg time  |  max time  |%varavg| %total
---------------------------------------------------------------
Pair    | 94.394     | 111.26     | 136.45     | 123.6 | 25.68
Bond    | 10.081     | 11.849     | 15.137     |  45.2 |  2.73
Neigh   | 2.8        | 2.9974     | 3.2312     |   7.1 |  0.69
Comm    | 228.82     | 261.04     | 281.2      |  95.9 | 60.24
Output  | 0.012467   | 0.013543   | 0.025045   |   1.5 |  0.00
Modify  | 35.362     | 38.926     | 43.946     |  43.3 |  8.98
Other   |            | 7.229      |            |       |  1.67

Nlocal:             43 ave          51 max          35 min
Histogram: 2 7 4 7 2 7 6 5 5 3
Nghost:        3104.94 ave        3190 max        3039 min
Histogram: 13 3 10 4 2 0 0 0 0 16
Neighs:        16154.3 ave       19088 max       13498 min
Histogram: 7 3 6 5 4 5 3 8 2 5

Total # of neighbors = 775405
Ave neighs/atom = 375.68072
Ave special neighs/atom = 6.372093
Neighbor list builds = 3985
Dangerous builds = 0
Generated 10 of 10 mixed pair_coeff terms from arithmetic mixing rule
Setting up Verlet run ...
  Unit style    : real
  Current step  : 0
  Time step     : 1
WARNING: Inconsistent image flags (../domain.cpp:815)
Per MPI rank memory allocation (min/avg/max) = 11.93 | 11.94 | 11.95 Mbytes
   Step          Temp          Volume    
         0   102.95633      34698.687    
      1000   97.251142      34713.462    
      2000   95.882915      34689.022    
      3000   101.97356      34773.094    
      4000   98.172247      34461.271    
      5000   101.19653      34768.215    
      6000   102.0639       34504.373    
      7000   100.07907      34850.887    
      8000   103.43508      34635.639    
      9000   102.86672      34623.553    
     10000   97.66336       34718.205    
     11000   102.19974      34533.793    
     12000   100.38733      34716.705    
     13000   100.28955      34589.085    
     14000   100.94076      34905.961    
     15000   99.056178      34519.921    
     16000   99.476117      34686.706    
     17000   100.32886      34613.094    
     18000   98.048132      34675.33     
     19000   100.81386      34703.741    
     20000   99.20326       34600.693    
     21000   98.89511       34675.679    
     22000   105.13096      34556.91     
     23000   99.509271      34663.892    
     24000   99.062717      34551.157    
     25000   99.953792      34691.131    
     26000   96.648588      34658.19     
     27000   99.184412      34583.046    
     28000   98.512405      34822.776    
     29000   100.15171      34541.306    
     30000   100.39987      34872.783    
     31000   97.958285      34587.943    
     32000   101.34356      34480.759    
     33000   101.70963      34724.897    
     34000   98.326686      34496.538    
     35000   97.737863      34690.938    
     36000   98.514498      34683.697    
     37000   97.993254      34586.747    
     38000   100.98729      34615.348    
     39000   101.32774      34633.162    
     40000   101.48285      34656.751    
     41000   100.79598      34696.207    
     42000   99.876495      34686.958    
     43000   102.29855      34430.822    
     44000   98.56538       34791.073    
     45000   103.71974      34589.858    
     46000   99.959148      35029.26     
     47000   100.52701      34665.105    
     48000   98.831942      34624.304    
     49000   100.481        34638.55     
     50000   97.750739      34490.124    
     51000   100.28231      34844.725    
     52000   98.594773      34619.553    
     53000   98.215863      34710.5      
     54000   97.870679      34623.148    
     55000   98.604897      34742.797    
     56000   101.1697       34630.497    
     57000   101.86791      34750.691    
     58000   98.108393      34703.345    
     59000   102.50353      34584.042    
     60000   97.723409      34824.338    
     61000   101.46939      34452.816    
     62000   99.620918      34711.811    
     63000   99.795907      34651.361    
     64000   97.232833      34611.082    
     65000   101.39947      34853.887    
     66000   101.99664      34502.578    
     67000   103.91588      34722.767    
     68000   99.845304      34665.912    
     69000   97.260525      34799.625    
     70000   97.871298      34761.939    
     71000   98.261876      34706.959    
     72000   98.890069      34752.355    
     73000   98.850742      34501.263    
     74000   97.644774      34702.669    
     75000   99.546425      34531.841    
     76000   101.59813      34712.485    
     77000   101.21113      34678.969    
     78000   101.95999      34578.113    
     79000   101.20258      34769.113    
     80000   101.99702      34478.072    
     81000   98.337234      34855.568    
     82000   99.327069      34542.6      
     83000   102.07334      34916.229    
     84000   99.384022      34549.073    
     85000   100.95069      34711.891    
     86000   100.66784      34796.872    
     87000   99.794237      34355.066    
     88000   97.103767      34764.711    
     89000   102.15309      34404.945    
     90000   99.278436      34723.471    
     91000   98.697057      34632.94     
     92000   97.716058      34775.777    
     93000   101.4906       34711.554    
     94000   101.10705      34557.937    
     95000   96.983216      34867.603    
     96000   99.841204      34643.054    
     97000   98.582259      34840.211    
     98000   100.13076      34528.172    
     99000   100.47991      34588.944    
    100000   102.29429      34575.898    
    101000   100.28077      34546.16     
    102000   100.21756      34776.6      
    103000   101.62951      34519.57     
    104000   99.086137      34837.273    
    105000   98.959669      34466.631    
    106000   99.435407      34813.1      
    107000   102.42297      34779.601    
    108000   101.72013      34855.863    
    109000   98.516923      34429.07     
    110000   101.99158      34599.617    
    111000   97.715218      34633.001    
    112000   103.75887      34567.307    
    113000   98.34414       34764.407    
    114000   99.231146      34516.17     
    115000   98.560653      34741.067    
    116000   99.330655      34420.424    
    117000   99.382926      34958.446    
    118000   99.19662       34602.585    
    119000   100.8607       34767.087    
    120000   98.424807      34730.855    
    121000   100.60965      34486.395    
    122000   101.28885      34610.075    
    123000   100.05027      34614.393    
    124000   101.11543      34755.184    
    125000   102.75669      34540.485    
    126000   100.20358      34709.292    
    127000   103.43849      34672.327    
    128000   101.79605      34524.717    
    129000   99.100936      34859.292    
    130000   97.355428      34526.724    
    131000   98.39752       34640.782    
    132000   101.90592      34620.609    
    133000   99.884396      34614.911    
    134000   97.507008      34666.096    
    135000   102.44981      34508.404    
    136000   101.36559      34839.61     
    137000   100.22916      34473.675    
    138000   101.13906      34719.994    
    139000   100.03933      34803.658    
    140000   99.842055      34562.245    
    141000   100.27494      34783.653    
    142000   103.32592      34534.316    
    143000   101.14618      34714.768    
    144000   102.00888      34497.573    
    145000   99.955952      34745.269    
    146000   97.325734      34647.599    
    147000   100.56494      34529.312    
    148000   100.29533      34948.481    
    149000   100.10045      34495.971    
    150000   99.458883      34679.39     
    151000   99.02007       34767.759    
    152000   100.30759      34738.913    
    153000   98.97853       34598.098    
    154000   99.880345      34629.613    
    155000   102.41432      34651.069    
    156000   98.843618      34526.533    
    157000   102.0853       34822.279    
    158000   96.86492       34641.79     
    159000   101.69824      34707.646    
    160000   99.349729      34631.563    
    161000   98.079112      34573.576    
    162000   100.90966      34739.583    
    163000   100.15609      34622.181    
    164000   100.04622      34658.837    
    165000   97.677483      34606.417    
    166000   101.91463      34503.507    
    167000   99.56189       34815.902    
    168000   101.47789      34618.767    
    169000   102.56601      34756.384    
    170000   99.820858      34541.434    
    171000   100.11113      34665.565    
    172000   98.084435      34653.787    
    173000   102.17779      34643.351    
    174000   96.255508      34786.016    
    175000   102.1977       34647.181    
    176000   100.10451      34637.833    
    177000   101.10919      34519.313    
    178000   99.783397      34899.109    
    179000   99.441621      34557.791    
    180000   103.38393      34856.829    
    181000   100.2227       34618.852    
    182000   99.573476      34526.092    
    183000   102.14496      34850.732    
    184000   100.06848      34466.954    
    185000   98.093749      34877.768    
    186000   99.000493      34640.739    
    187000   98.985348      34606.259    
    188000   98.310157      34674.363    
    189000   101.13385      34555.803    
    190000   97.02777       34918.076    
    191000   98.546247      34512.783    
    192000   97.19383       34825.59     
    193000   100.86593      34479.127    
    194000   98.303889      34674.763    
    195000   98.21096       34601.927    
    196000   100.18866      34704.089    
    197000   99.593822      34771.864    
    198000   99.632939      34356.043    
    199000   99.339225      34842.803    
    200000   102.75488      34378.216    
    201000   101.13972      34914.545    
    202000   100.59277      34644.19     
    203000   100.10351      34716.166    
    204000   103.17539      34631.722    
    205000   102.57385      34560.884    
    206000   95.903656      34720.658    
    207000   101.29736      34452.649    
    208000   102.56485      34753.185    
    209000   99.10638       34570.498    
    210000   100.90112      34598.858    
    211000   101.30463      34791.096    
    212000   101.18529      34577.857    
    213000   99.935441      34866.606    
    214000   102.89328      34470.013    
    215000   101.52261      34800.363    
    216000   97.294003      34483.75     
    217000   100.56408      34774.801    
    218000   102.69665      34645.627    
    219000   99.676823      34563.51     
    220000   100.02846      34810.405    
    221000   98.041762      34425.129    
    222000   99.402912      34759.768    
    223000   100.88581      34395.356    
    224000   100.38815      34846.958    
    225000   97.492074      34616.7      
    226000   101.85481      34727.263    
    227000   100.75535      34778.223    
    228000   98.970043      34549.311    
    229000   99.939718      34618.264    
    230000   99.239327      34571.753    
    231000   101.94435      34847.206    
    232000   100.01346      34499.429    
    233000   101.64138      34781.591    
    234000   99.650157      34383.548    
    235000   99.163493      34643.529    
    236000   99.410594      34769.987    
    237000   100.42048      34472.449    
    238000   99.826001      34867.936    
    239000   99.506253      34435.954    
    240000   98.999882      34666.162    
    241000   98.69512       34500.44     
    242000   100.19523      34738.165    
    243000   100.93086      34630.178    
    244000   99.914151      34824.435    
    245000   98.528745      34625.484    
    246000   101.17169      34474.624    
    247000   97.431497      34806.363    
    248000   98.045541      34450.285    
    249000   101.76514      34876.922    
    250000   103.06835      34544.417    
    251000   99.176329      34616.916    
    252000   101.13639      34716.1      
    253000   97.375895      34400.001    
    254000   104.30361      34843.434    
    255000   101.34411      34457.449    
    256000   95.986861      34820.684    
    257000   100.38948      34592.846    
    258000   100.30623      34692.98     
    259000   101.10811      34687.236    
    260000   100.95911      34586.895    
    261000   98.712688      34757.531    
    262000   99.478297      34479.647    
    263000   100.40481      34661.436    
    264000   102.42371      34475.548    
    265000   99.076338      34635.074    
    266000   99.22875       34683.227    
    267000   99.914622      34610.932    
    268000   99.390599      34801.236    
    269000   101.55312      34543.908    
    270000   99.02469       34763.881    
    271000   99.389881      34550.7      
    272000   95.924968      34606.487    
    273000   99.442359      34802.269    
    274000   98.432346      34494.334    
    275000   100.04882      34689.085    
    276000   101.5746       34507.97     
    277000   97.660104      34694.216    
    278000   100.32366      34694.235    
    279000   100.27542      34743.059    
    280000   98.083272      34589.206    
    281000   99.338149      34452.305    
    282000   99.548337      34757.225    
    283000   101.58984      34620.063    
    284000   98.845552      34708.588    
    285000   100.51547      34554.017    
    286000   98.933626      34537.757    
    287000   99.953518      34643.218    
    288000   100.0888       34524.653    
    289000   101.56875      34669.765    
    290000   100.84428      34567.205    
    291000   98.71839       34711.36     
    292000   100.19329      34617.604    
    293000   98.537289      34563.56     
    294000   99.822837      34543.527    
    295000   102.11012      34704.615    
    296000   102.87242      34801.704    
    297000   97.535543      34407.982    
    298000   101.9012       34818.42     
    299000   101.54315      34444.093    
    300000   99.794957      34755.863    
    301000   101.0817       34740.657    
    302000   96.019195      34635.039    
    303000   98.824269      34714.867    
    304000   98.350783      34500.841    
    305000   100.25441      34725.976    
    306000   98.418284      34475.897    
    307000   100.98634      34823.608    
    308000   100.62659      34640.438    
    309000   101.1537       34783.987    
    310000   99.413344      34607.393    
    311000   97.977297      34481.513    
    312000   99.968693      34793.785    
    313000   101.92822      34272.93     
    314000   99.002333      34783.454    
    315000   99.397402      34522.77     
    316000   100.11946      34644.092    
    317000   98.289363      34598.775    
    318000   101.76756      34565.533    
    319000   101.16289      34794.766    
    320000   101.42548      34464.406    
    321000   101.23296      34873.71     
    322000   101.85241      34468.643    
    323000   98.968859      34655.181    
    324000   99.68059       34620.36     
    325000   99.913467      34640.091    
    326000   99.077657      34800.002    
    327000   101.82998      34455.692    
    328000   100.63224      34832.19     
    329000   99.941373      34339.532    
    330000   99.37202       34756.005    
    331000   100.15986      34532.242    
    332000   99.268352      34576.649    
    333000   101.57127      34879.934    
    334000   99.315081      34471.696    
    335000   99.188172      34754.591    
    336000   99.322358      34580.108    
    337000   98.676156      34672.441    
    338000   100.16214      34760.385    
    339000   97.711395      34762.039    
    340000   100.7145       34555.902    
    341000   101.95399      34540.055    
    342000   97.765999      34700.39     
    343000   100.107        34570.773    
    344000   101.36876      34979.046    
    345000   102.81089      34624.66     
    346000   98.956325      34546.697    
    347000   99.899805      34664.971    
    348000   98.717169      34542.172    
    349000   100.45201      34795.326    
    350000   104.12128      34668.131    
    351000   101.1682       34616.462    
    352000   96.846484      34682.365    
    353000   101.32983      34499.6      
    354000   100.17253      34779.961    
    355000   98.989955      34640.992    
    356000   98.522484      34665.58     
    357000   102.18753      34586.687    
    358000   98.152942      34648.523    
    359000   97.985524      34461.506    
    360000   97.298323      34810.132    
    361000   99.781447      34628.339    
    362000   102.5359       34743.677    
    363000   99.025279      34539.291    
    364000   101.987        34634.243    
    365000   102.5794       34677.401    
    366000   100.79632      34721.54     
    367000   100.28117      34756.973    
    368000   102.53394      34488.352    
    369000   98.071266      34583.459    
    370000   104.20217      34581.865    
    371000   101.75903      34560.244    
    372000   99.32572       34642.571    
    373000   101.36735      34651.878    
    374000   100.55087      34677.036    
    375000   99.842276      34621.255    
    376000   100.91801      34776.748    
    377000   98.916164      34596.199    
    378000   97.453149      34677.594    
    379000   97.427007      34614.94     
    380000   99.48109       34566.093    
    381000   97.379145      34687.845    
    382000   101.81255      34567.655    
    383000   101.92728      34733.651    
    384000   96.938448      34550.688    
    385000   97.243924      34698.853    
    386000   102.63254      34584.876    
    387000   101.15374      34649.071    
    388000   101.83178      34534.226    
    389000   99.61306       34754.751    
    390000   102.0405       34640.998    
    391000   98.368356      34549.198    
    392000   99.339971      34760.507    
    393000   103.32201      34421.795    
    394000   102.03261      34846.589    
    395000   97.555117      34627.347    
    396000   100.00685      34799.631    
    397000   100.08037      34557.692    
    398000   99.560729      34599.108    
    399000   97.127076      34592.579    
    400000   98.993981      34661.284    
    401000   99.225853      34617.222    
    402000   99.111215      34624.56     
    403000   98.937761      34671.826    
    404000   98.886043      34381.915    
    405000   99.620723      34903.952    
    406000   98.322913      34612.039    
    407000   99.51629       34867.298    
    408000   98.606925      34674.637    
    409000   105.15493      34637.078    
    410000   99.236671      34440.657    
    411000   100.09286      34585.442    
    412000   100.56824      34598.093    
    413000   99.538843      34702.291    
    414000   99.873466      34600.99     
    415000   102.93899      34480.234    
    416000   101.82919      34772.39     
    417000   102.67855      34537.339    
    418000   101.162        34817.754    
    419000   102.44617      34880.521    
    420000   98.392174      34397.336    
    421000   100.16838      34733.363    
    422000   98.232616      34429.81     
    423000   102.5355       34637.624    
    424000   99.946092      34654.681    
    425000   100.45937      34623.888    
    426000   102.6944       34469.842    
    427000   103.20013      34598.202    
    428000   98.779141      34668.503    
    429000   97.242215      34686.096    
    430000   99.57909       34836.732    
    431000   100.53513      34554.739    
    432000   96.24293       34718.969    
    433000   102.45266      34568.865    
    434000   101.47082      34673.326    
    435000   101.92177      34688.621    
    436000   102.01357      34436.777    
    437000   101.93181      34687.472    
    438000   96.834811      34467.776    
    439000   102.65137      34709.3      
    440000   101.5132       34689.381    
    441000   100.27326      34726.512    
    442000   97.860066      34594.962    
    443000   96.431662      34643.782    
    444000   100.92084      34667.854    
    445000   103.27908      34583.677    
    446000   99.109371      34691.439    
    447000   100.44947      34445.605    
    448000   101.93582      34710.84     
    449000   99.145793      34548.659    
    450000   101.50724      34642.191    
    451000   99.951577      34750.673    
    452000   100.58358      34547.478    
    453000   99.543676      34869.568    
    454000   97.671352      34652.869    
    455000   100.64702      34734.126    
    456000   103.54244      34530.303    
    457000   99.493381      34711.887    
    458000   102.31525      34729.488    
    459000   99.13195       34405.546    
    460000   99.959048      34783.334    
    461000   103.29077      34158.679    
    462000   99.298282      34809.908    
    463000   96.347252      34645.778    
    464000   100.45211      34702.828    
    465000   99.407352      34744.408    
    466000   102.7961       34464.968    
    467000   99.429932      34773.952    
    468000   101.31513      34517.857    
    469000   98.012351      34751.483    
    470000   99.655466      34771.692    
    471000   95.353418      34537.254    
    472000   101.99221      34531.978    
    473000   101.1199       34667.254    
    474000   99.390348      34747.348    
    475000   104.15039      34691.92     
    476000   98.7555        34616.996    
    477000   100.25685      34468.749    
    478000   98.728396      34529.511    
    479000   99.601752      34690.235    
    480000   100.02093      34758.991    
    481000   104.17214      34727.779    
    482000   100.30976      34533.699    
    483000   102.5938       34722.974    
    484000   99.064281      34636.687    
    485000   101.1469       34714.342    
    486000   99.80899       34794.275    
    487000   101.66619      34665.397    
    488000   98.474813      34540.842    
    489000   101.74272      34783.872    
    490000   98.155788      34541.408    
    491000   100.74289      34527.14     
    492000   100.69344      34706.081    
    493000   100.21097      34649.68     
    494000   104.40931      34563.52     
    495000   99.776703      34662.265    
    496000   102.32875      34746.692    
    497000   98.575136      34528.575    
    498000   100.20798      34739.537    
    499000   98.605955      34575.119    
    500000   100.1333       34645.404    
    501000   99.686929      34575.129    
    502000   102.19437      34749.444    
    503000   101.09155      34679.672    
    504000   96.646804      34571.346    
    505000   97.810335      34745.087    
    506000   101.7157       34541.719    
    507000   100.43538      34538.48     
    508000   100.42736      34777.832    
    509000   101.61919      34623.281    
    510000   101.73954      34666.926    
    511000   97.997172      34630.429    
    512000   99.118897      34674.801    
    513000   100.72112      34645.197    
    514000   96.87638       34586.994    
    515000   100.34051      34657.52     
    516000   102.43771      34571.16     
    517000   102.47307      34651.693    
    518000   98.991403      34689.604    
    519000   97.693961      34718.628    
    520000   100.86773      34579.475    
    521000   98.453893      34625.81     
    522000   101.28039      34630.826    
    523000   100.75036      34610.46     
    524000   102.78632      34708.341    
    525000   98.045694      34701.52     
    526000   102.60336      34508.265    
    527000   98.716296      34662.984    
    528000   101.89783      34637.393    
    529000   99.756097      34737.535    
    530000   99.618521      34655.62     
    531000   102.47617      34741.754    
    532000   100.37749      34648.463    
    533000   97.289521      34456.276    
    534000   97.330316      35033.052    
    535000   99.769791      34489.308    
    536000   99.681902      34876.36     
    537000   101.8326       34547.294    
    538000   98.585245      34555.897    
    539000   99.846303      34783.408    
    540000   101.09049      34527.052    
    541000   94.828249      34926.508    
    542000   101.50663      34200.419    
    543000   100.07418      34782.214    
    544000   102.97216      34462.96     
    545000   101.14196      34745.953    
    546000   100.45009      34718.669    
    547000   99.559506      34641.512    
    548000   100.9552       34644.351    
    549000   98.161789      34444.213    
    550000   99.896522      34744.43     
    551000   97.95622       34549.263    
    552000   100.00486      34827.564    
    553000   101.80709      34389.31     
    554000   100.9233       34788.678    
    555000   96.017835      34450.022    
    556000   102.05835      34710.896    
    557000   100.47386      34852.424    
    558000   97.173554      34419.789    
    559000   97.670851      34899.21     
    560000   100.90005      34459.904    
    561000   100.99511      34678.604    
    562000   99.516012      34592.414    
    563000   99.7282        34693.271    
    564000   99.547725      34618.875    
    565000   100.3625       34664.261    
    566000   102.36258      34692.528    
    567000   102.11543      34446.904    
    568000   101.03445      34718.685    
    569000   102.17516      34615.477    
    570000   99.483114      34728.748    
    571000   100.91224      34573.472    
    572000   99.543703      34631.516    
    573000   98.326557      34581.295    
    574000   98.603355      34531.696    
    575000   98.370753      34920.961    
    576000   101.47003      34590.513    
    577000   97.731084      34657.82     
    578000   100.30086      34648.351    
    579000   101.41004      34497.262    
    580000   97.215521      34572.744    
    581000   101.88135      34791.783    
    582000   99.674989      34765.095    
    583000   101.60139      34457.509    
    584000   98.939738      34744.778    
    585000   96.714185      34484.002    
    586000   100.69695      34757.712    
    587000   101.70807      34717.747    
    588000   101.80737      34655.886    
    589000   102.04103      34567.894    
    590000   99.733477      34596.478    
    591000   99.891213      34769.828    
    592000   98.445633      34668.977    
    593000   98.893515      34608.881    
    594000   100.2096       34668.411    
    595000   98.219944      34685.589    
    596000   98.073912      34638.031    
    597000   100.11014      34762.507    
    598000   99.832011      34725.508    
    599000   99.380286      34327.212    
    600000   102.84601      34782.179    
    601000   100.10283      34558.324    
    602000   103.08503      34637.037    
    603000   97.72436       34873.027    
    604000   98.419244      34461.433    
    605000   98.491487      34680.236    
    606000   101.82956      34468.7      
    607000   97.215816      34787.623    
    608000   100.87228      34726.478    
    609000   98.507304      34568.426    
    610000   100.76985      34728.266    
    611000   96.600871      34496.498    
    612000   98.437491      34657.026    
    613000   101.93957      34712.604    
    614000   100.93544      34648.745    
    615000   99.622304      34514.73     
    616000   99.887695      34584.897    
    617000   97.218876      34813.592    
    618000   102.44045      34517.585    
    619000   95.038438      34886.253    
    620000   100.9424       34598.002    
    621000   98.477535      34506.583    
    622000   102.37978      34702.634    
    623000   101.11452      34647.697    
    624000   100.05353      34862.853    
    625000   100.74383      34437.57     
    626000   101.79753      34652.078    
    627000   99.403679      34445.814    
    628000   102.13859      34743.85     
    629000   100.32283      34774.955    
    630000   101.38052      34577.525    
    631000   101.14511      34770.583    
    632000   99.428417      34602.894    
    633000   99.032356      34792.57     
    634000   100.27723      34522.006    
    635000   101.40646      34779.107    
    636000   101.7742       34728.443    
    637000   100.5389       34464.866    
    638000   101.17358      35020.909    
    639000   99.767159      34495.267    
    640000   97.135018      34697.249    
    641000   97.604126      34663.092    
    642000   99.678656      34656.148    
    643000   101.38275      34678.608    
    644000   100.75974      34704.925    
    645000   97.199942      34910.651    
    646000   101.51465      34437.656    
    647000   102.57075      34645.803    
    648000   102.78902      34447.198    
    649000   102.35281      34920.945    
    650000   100.76754      34753.677    
    651000   100.14801      34722.296    
    652000   96.79608       34607.837    
    653000   101.13361      34475.509    
    654000   99.176506      34757.665    
    655000   102.2845       34785.631    
    656000   100.33201      34627.789    
    657000   99.716061      34588.052    
    658000   99.45031       34528.954    
    659000   99.645583      34824.814    
    660000   100.99435      34642.066    
    661000   97.505226      35016.35     
    662000   98.680998      34526.35     
    663000   101.32956      34543.266    
    664000   103.02907      34799.133    
    665000   99.327958      34706.241    
    666000   100.35165      34696.722    
    667000   99.601782      34568.822    
    668000   99.74091       34575.839    
    669000   100.9818       34359.738    
    670000   99.028467      34717.695    
    671000   101.7344       34747.662    
    672000   96.767313      34593.578    
    673000   98.859839      34734.716    
    674000   101.64063      34514.536    
    675000   97.14215       34710.063    
    676000   101.57702      34745.632    
    677000   97.892737      34743.335    
    678000   98.358662      34640.182    
    679000   100.68705      34535.832    
    680000   97.354602      34645.769    
    681000   102.19868      34626.37     
    682000   96.872698      34787.547    
    683000   102.83651      34579.636    
    684000   99.741049      34743.343    
    685000   99.900269      34459.352    
    686000   99.502794      34777.491    
    687000   97.861036      34636.458    
    688000   99.819724      34626.712    
    689000   97.649618      34755.779    
    690000   99.301309      34357.044    
    691000   101.11696      34657.488    
    692000   99.046128      34578.189    
    693000   101.77477      34735.707    
    694000   97.252651      34609.155    
    695000   100.53036      34701.269    
    696000   101.17765      34676.947    
    697000   99.417989      34708.866    
    698000   96.580106      34685.946    
    699000   98.05018       34601.26     
    700000   99.944321      34640.985    
    701000   98.702337      34632.044    
    702000   97.918475      34709.864    
    703000   101.99549      34583.724    
    704000   100.55949      34727.366    
    705000   101.56531      34627.023    
    706000   99.564178      34471.979    
    707000   101.53537      34891.145    
    708000   100.93399      34556.042    
    709000   99.965625      34821.73     
    710000   98.932334      34531.469    
    711000   96.403128      34557.052    
    712000   101.29466      34578.005    
    713000   101.69268      34649.538    
    714000   101.57643      34660.398    
    715000   98.19462       34480.573    
    716000   97.604949      34685.42     
    717000   101.37569      34412.438    
    718000   98.737595      34662.079    
    719000   100.97795      34559.168    
    720000   101.52974      34875.179    
    721000   100.3437       34524.272    
    722000   94.311815      34700.974    
    723000   102.22093      34490.816    
    724000   101.33069      34530.816    
    725000   100.04486      34635.603    
    726000   100.42471      34692.445    
    727000   97.028631      34686.371    
    728000   99.052343      34508.294    
    729000   102.64897      34713.4      
    730000   101.05262      34438.359    
    731000   100.72988      34756.39     
    732000   99.556742      34714.783    
    733000   99.80581       34608.383    
    734000   103.1351       34509.922    
    735000   99.017817      34561.008    
    736000   100.62861      34687.641    
    737000   97.457128      34520.821    
    738000   102.15845      34853.681    
    739000   100.24062      34713.52     
[...]
    555000   496.11388      36038.728    
    556000   492.65446      35348.343    
    557000   494.16771      36140.234    
    558000   505.97227      35779.322    
    559000   500.04216      35864.345    
    560000   515.43656      35529.391    
    561000   485.48812      35977.511    
    562000   517.54387      35923.229    
    563000   500.62261      35730.075    
    564000   485.3955       35507.515    
    565000   500.42394      36328.433    
    566000   518.49479      35717.265    
    567000   509.33082      35605.6      
    568000   501.44366      35978.808    
    569000   507.13386      35707.487    
    570000   501.17085      35298.031    
    571000   485.5286       36177.283    
    572000   503.50165      35842.012    
    573000   494.32603      36261.421    
    574000   512.00523      35699.196    
    575000   500.89586      36385.275    
    576000   500.80289      35865.643    
    577000   501.00225      36067.263    
    578000   506.45474      36569.771    
    579000   507.77243      36179.496    
    580000   489.33434      35884.518    
    581000   496.59232      36127.62     
    582000   499.33132      35739.061    
    583000   493.32082      35709.111    
    584000   497.70794      36167.013    
    585000   488.74361      35977.946    
    586000   502.21419      35328.511    
    587000   494.46484      36099.21     
    588000   496.81823      35772.109    
    589000   505.12234      35425.892    
    590000   484.93487      36134.953    
    591000   511.03591      36065.994    
    592000   504.58303      35499.645    
    593000   490.73586      36036.928    
    594000   498.10991      36021.678    
    595000   488.46669      35760.37     
    596000   504.62995      35879.964    
    597000   505.95142      36210.822    
    598000   506.05694      35759.901    
    599000   504.83713      35627.674    
    600000   500.37705      36360.049    
    601000   505.21983      35586.172    
    602000   489.49642      35546.533    
    603000   490.78294      35719.705    
    604000   494.41043      36049.071    
    605000   488.30014      35668.125    
    606000   503.71989      35618.23     
    607000   492.6649       35624.461    
    608000   494.61748      35516.369    
    609000   507.23115      35309.504    
    610000   490.35254      35984.778    
    611000   499.00848      35703.315    
    612000   498.53033      35634.587    
    613000   497.47674      35810.548    
    614000   494.0455       36366.151    
    615000   488.33806      35733.663    
    616000   495.34657      35569.983    
    617000   504.93649      35509.545    
    618000   509.24039      36271.721    
    619000   478.74102      35655.357    
    620000   507.56077      35845.525    
    621000   502.2002       35751.15     
    622000   506.21124      35982.061    
    623000   503.81538      35419.796    
    624000   505.69281      35750.92     
    625000   493.63274      35964.887    
    626000   507.67366      35602.34     
    627000   492.73388      35969.114    
    628000   494.60426      36145.932    
    629000   510.60292      36162.057    
    630000   503.02309      35481.258    
    631000   501.16765      36566.945    
    632000   494.01514      35979.882    
    633000   507.92253      35757.807    
    634000   506.93167      35987.382    
    635000   494.44423      36310.93     
    636000   483.36338      35389.076    
    637000   495.37589      36247.097    
    638000   505.02371      36088.38     
    639000   481.26599      35868.647    
    640000   492.04754      35307.269    
    641000   507.08828      36243.721    
    642000   485.70351      35990.139    
    643000   506.06917      35624.514    
    644000   498.62315      36039.781    
    645000   511.86507      35985.915    
    646000   515.09931      35630.634    
    647000   507.13779      35995.537    
    648000   488.89896      36259.562    
    649000   501.59294      35546.879    
    650000   488.27848      35760.469    
    651000   497.33361      36166.664    
    652000   514.59396      35838.076    
    653000   500.40652      35723.404    
    654000   509.1259       36307.076    
    655000   489.60441      36272.56     
    656000   505.82015      35438.616    
    657000   516.40855      36117.026    
    658000   511.66278      36176.656    
    659000   490.24852      35113.387    
    660000   501.5125       35903.855    
    661000   489.28254      35889.822    
    662000   499.57644      35926.987    
    663000   502.38622      36167.805    
    664000   494.16311      36282.502    
    665000   513.41839      35808.05     
    666000   501.69689      35915.363    
    667000   508.47637      36127.247    
    668000   491.08052      36082.668    
    669000   499.92938      35468.121    
    670000   510.84149      36185.566    
    671000   501.14887      36353.262    
    672000   495.67538      35648.676    
    673000   508.69544      36109.001    
    674000   504.17505      36521.475    
    675000   492.31966      35634.617    
    676000   496.53483      35932.672    
    677000   495.05961      36288.543    
    678000   495.71747      35799.752    
    679000   490.54781      35827.688    
    680000   511.90704      35921.446    
    681000   499.69015      36236.93     
    682000   505.52838      35749.681    
    683000   509.54179      36178.185    
    684000   499.13016      36327.184    
    685000   515.53071      35645.925    
    686000   507.10894      36130.912    
    687000   504.86312      36629.108    
    688000   489.29077      35740.355    
    689000   479.17377      35854.761    
    690000   492.47909      36521.571    
    691000   501.87922      36257.888    
    692000   495.95239      35964.556    
    693000   499.58976      36071.75     
    694000   494.53167      36565.074    
    695000   488.75096      36566.497    
    696000   499.0265       36103.356    
    697000   501.61191      36024.979    
    698000   501.55041      36321.326    
    699000   499.86532      35779.938    
    700000   497.34818      35699.931    
    701000   506.99575      35927.478    
    702000   490.79135      35852.728    
    703000   491.55089      35686.825    
    704000   487.4403       35620.242    
    705000   507.85082      36205.867    
    706000   492.59268      35707.871    
    707000   506.72321      35833.137    
    708000   499.49744      36287.204    
    709000   498.20846      35690.199    
    710000   496.20648      35770.251    
    711000   501.87663      36265.338    
    712000   506.01002      35950.334    
    713000   492.35486      36367.815    
    714000   485.21558      35489.195    
    715000   508.90912      36515.088    
    716000   492.5841       36220.801    
    717000   495.74364      35803.619    
    718000   499.1675       36197.642    
    719000   491.04514      36556.868    
    720000   484.14563      35753.897    
    721000   502.95972      36449.694    
    722000   497.35138      35890.953    
    723000   485.47715      35736.938    
    724000   499.26555      35902.581    
    725000   507.31869      36131.164    
    726000   495.91001      35888.227    
    727000   493.91945      35601.982    
    728000   503.99522      35902.449    
    729000   499.46558      36121.612    
    730000   514.97487      35400.461    
    731000   504.4349       35885.265    
    732000   494.24394      35874.181    
    733000   505.43403      36390.356    
    734000   500.24919      35373.059    
    735000   509.86871      35842.738    
    736000   494.10028      36285.896    
    737000   498.93411      35657.173    
    738000   489.05609      35996.739    
    739000   502.39539      36121.011    
    740000   513.12451      35999.504    
    741000   498.83991      35919.076    
    742000   494.01933      35621.963    
    743000   508.25932      36567.189    
    744000   495.26225      35640.14     
    745000   511.26358      35823.426    
    746000   493.93194      36030.675    
    747000   489.32293      35947.967    
    748000   510.10356      35815.761    
    749000   491.32362      36042.694    
    750000   514.09446      35834.644    
    751000   487.06596      35960.85     
    752000   498.68555      35543.591    
    753000   485.24184      36023.152    
    754000   503.21222      36231.743    
    755000   507.39422      36044.847    
    756000   506.40161      35506.32     
    757000   498.13592      36301.895    
    758000   507.4407       35858.299    
    759000   511.77103      35622.026    
    760000   498.45941      35403.214    
    761000   500.44107      36399.28     
    762000   491.58354      35835.854    
    763000   518.60768      35776.083    
    764000   510.56895      35797.72     
    765000   498.86149      36404.846    
    766000   490.58766      35391.436    
    767000   506.4862       36058.562    
    768000   498.90279      35932.714    
    769000   490.30153      36141.575    
    770000   504.1564       35648.914    
    771000   498.7337       36332.845    
    772000   503.03271      36030.253    
    773000   500.90531      35795.949    
    774000   481.74642      36109.471    
    775000   501.35933      35989.979    
    776000   505.86949      35452.002    
    777000   483.62834      36044.262    
    778000   502.11268      36725.994    
    779000   491.62074      35850.955    
    780000   506.20139      36177.784    
    781000   498.67676      36017.466    
    782000   504.1886       36556.368    
    783000   507.25498      35224.983    
    784000   507.10282      36015.478    
    785000   503.70571      35955.853    
    786000   488.8453       36114.053    
    787000   503.33242      35580.04     
    788000   493.28307      36505.664    
    789000   491.11686      35390.595    
    790000   486.00793      36153.964    
    791000   504.51078      35704.448    
    792000   500.7769       36189.977    
    793000   481.321        35934.881    
    794000   515.18276      35603.575    
    795000   505.78545      36504.912    
    796000   511.60992      35944.852    
    797000   483.31807      35916.028    
    798000   489.68018      35732.066    
    799000   506.84671      36254.931    
    800000   487.27417      35692.054    
    801000   498.22031      35871.352    
    802000   483.46359      35936.568    
    803000   511.39191      36244.594    
    804000   510.85762      35587.064    
    805000   504.15801      36146.929    
    806000   494.27047      35526.396    
    807000   500.60306      36048.412    
    808000   500.34471      35571.771    
    809000   502.56498      35984.046    
    810000   489.43815      35993.056    
    811000   496.05924      35837.622    
    812000   498.47446      35723.886    
    813000   492.04799      36340.748    
    814000   507.5971       35662.974    
    815000   515.35141      36156.926    
    816000   505.69183      35567.944    
    817000   484.4848       36139.739    
    818000   508.81362      35882.155    
    819000   504.88317      36151.013    
    820000   507.94415      36013.185    
    821000   508.30124      36046.815    
    822000   513.42452      35714.588    
    823000   490.49432      36519.366    
    824000   506.03983      35541.953    
    825000   504.87468      36316.806    
    826000   492.68231      36059.637    
    827000   490.23566      36503.845    
    828000   510.95936      35727.571    
    829000   498.21985      36189.099    
    830000   498.86716      36467.438    
    831000   493.92929      36183.849    
    832000   504.52996      35501.864    
    833000   497.28992      36087.103    
    834000   506.66133      36038.884    
    835000   507.20894      35971.569    
    836000   503.48869      35710.744    
    837000   502.94928      35924.709    
    838000   496.61676      35907.262    
    839000   513.22461      35446.577    
    840000   490.37351      36003.095    
    841000   487.34753      35838.103    
    842000   503.81512      35558.495    
    843000   495.13271      35934.163    
    844000   499.8535       35979.619    
    845000   486.95041      36180.008    
    846000   505.99386      35619.465    
    847000   488.27026      36202.069    
    848000   529.93738      36598.475    
    849000   506.1379       35834.061    
    850000   493.30015      36091.012    
    851000   498.74791      36222.339    
    852000   502.83662      35629.161    
    853000   516.66548      36277.103    
    854000   510.22071      36010.622    
    855000   489.86559      36042.495    
    856000   509.58384      35953.015    
    857000   503.18269      36200.15     
    858000   505.44171      36125.163    
    859000   502.39251      35613.612    
    860000   494.56242      36163.534    
    861000   504.60522      36371.643    
    862000   469.57767      35552.999    
    863000   500.90407      36408.71     
    864000   493.50901      36011.471    
    865000   500.32872      35741.34     
    866000   505.27878      35791.222    
    867000   489.66569      36354.389    
    868000   496.99112      35447.567    
    869000   501.52436      36013.729    
    870000   503.61585      35837.568    
    871000   497.66845      35973.571    
    872000   502.03276      35578.246    
    873000   495.21835      36330.184    
    874000   509.90582      35833.847    
    875000   502.57577      35778.651    
    876000   498.16979      35971.685    
    877000   496.20528      36524.998    
    878000   476.45412      35545.654    
    879000   507.93403      35975.455    
    880000   507.69683      36728.156    
    881000   480.24439      36009.188    
    882000   505.432        35810.558    
    883000   479.54013      36409.499    
    884000   494.51028      36050.444    
    885000   512.83665      35772.144    
    886000   495.96603      36146.162    
    887000   504.34141      36177.776    
    888000   492.4199       35815.677    
    889000   497.71479      36061.927    
    890000   496.49377      36280.091    
    891000   519.51311      35647.649    
    892000   489.65816      36123.1      
    893000   491.71624      36061.611    
    894000   498.62041      35749.507    
    895000   496.49636      36026.529    
    896000   504.04214      36082.162    
    897000   506.20611      35403.852    
    898000   489.48112      35831.92     
    899000   508.77965      35892.136    
    900000   503.84528      36232.899    
    901000   496.65777      35604.076    
    902000   497.75827      36243.404    
    903000   507.29103      36249.991    
    904000   499.96097      35675.045    
    905000   504.85707      36257.988    
    906000   511.34645      36126.072    
    907000   506.01652      35886.57     
    908000   488.47778      35774.438    
    909000   505.23062      35939.711    
    910000   509.19188      36157.653    
    911000   495.61687      35445.159    
    912000   496.27607      36441.943    
    913000   510.86596      36031.056    
    914000   497.65106      35719.168    
    915000   507.76571      36552.429    
    916000   484.83577      36157.063    
    917000   503.03906      35784.659    
    918000   503.99792      35966.035    
    919000   500.75759      36478.575    
    920000   487.10747      35656.758    
    921000   494.24434      35478.539    
    922000   516.70778      36541.414    
    923000   495.37621      35786.363    
    924000   492.38115      35553.11     
    925000   498.8512       35856.272    
    926000   498.94643      35933.24     
    927000   495.70204      35624.562    
    928000   507.79656      35922.092    
    929000   496.16322      35743.705    
    930000   484.63189      35646.175    
    931000   501.96442      35325.456    
    932000   478.70959      36476.178    
    933000   487.59998      35577.004    
    934000   490.72397      35870.533    
    935000   493.01159      35895.35     
    936000   496.98063      36247.983    
    937000   504.9672       35496.215    
    938000   482.28139      35896.658    
    939000   496.13793      35884.411    
    940000   497.3486       35908.687    
    941000   492.3926       35718        
    942000   519.51063      36077.327    
    943000   494.01307      36065.454    
    944000   493.67933      35761.503    
    945000   503.31071      35710.249    
    946000   495.01734      36019.525    
    947000   497.40589      35961.715    
    948000   516.25087      35115.569    
    949000   487.15621      36278.939    
    950000   492.44891      35723.208    
    951000   517.67033      35525.383    
    952000   501.3589       35556.517    
    953000   495.16175      36524.71     
    954000   510.77094      35383.644    
    955000   493.80614      36057.34     
    956000   497.50442      35877.156    
    957000   504.43758      36373.753    
    958000   495.88911      35505.626    
    959000   509.08362      36084.457    
    960000   502.00497      36379.982    
    961000   506.93252      35777.19     
    962000   507.86815      35974.763    
    963000   516.3657       36279.679    
    964000   504.78968      35788.71     
    965000   485.91933      35473.627    
    966000   497.54762      36183.193    
    967000   495.56658      36014.056    
    968000   484.87108      35679.241    
    969000   493.84376      35890.609    
    970000   485.63141      36070.458    
    971000   499.39815      35731.507    
    972000   504.35069      35879.79     
    973000   501.6218       35595.72     
    974000   499.39944      36282.488    
    975000   529.09655      35791.08     
    976000   485.58997      35733.715    
    977000   515.8024       35765.613    
    978000   492.35207      35976.237    
    979000   495.68774      35945.473    
    980000   503.90489      35623.544    
    981000   511.76339      35692.207    
    982000   505.09939      36263.175    
    983000   502.99792      35346.102    
    984000   505.45873      36030.761    
    985000   516.25558      35817.19     
    986000   495.1278       36075.644    
    987000   505.55025      35444.813    
    988000   500.82726      36031.378    
    989000   499.79961      36019.933    
    990000   492.6119       36199.718    
    991000   501.82568      35318.745    
    992000   487.43077      36367.643    
    993000   500.52039      35654.015    
    994000   490.68416      36101.138    
    995000   494.89784      35232.13     
    996000   497.92468      36188.296    
    997000   504.51555      35758.078    
    998000   511.75752      35917.492    
    999000   503.42987      35567.384    
   1000000   508.9159       36133.77     
Loop time of 572.505 on 48 procs for 1000000 steps with 2064 atoms

Performance: 150.916 ns/day, 0.159 hours/ns, 1746.708 timesteps/s, 3.605 Matom-step/s
99.5% CPU use with 48 MPI tasks x no OpenMP threads

MPI task timing breakdown:
Section |  min time  |  avg time  |  max time  |%varavg| %total
---------------------------------------------------------------
Pair    | 123.03     | 143.85     | 172.64     | 138.8 | 25.13
Bond    | 12.888     | 15.071     | 18.916     |  50.5 |  2.63
Neigh   | 18.301     | 19.769     | 22.038     |  25.2 |  3.45
Comm    | 285.64     | 321.72     | 345.72     | 105.0 | 56.19
Output  | 0.021167   | 0.022872   | 0.072691   |   4.8 |  0.00
Modify  | 58.028     | 62.308     | 67.445     |  37.5 | 10.88
Other   |            | 9.77       |            |       |  1.71

Nlocal:             43 ave          52 max          35 min
Histogram: 5 4 8 3 7 5 1 5 9 1
Nghost:        3005.38 ave        3100 max        2936 min
Histogram: 12 7 12 1 0 0 0 0 2 14
Neighs:        15538.7 ave       18867 max       12334 min
Histogram: 5 1 7 6 8 4 3 5 8 1

Total # of neighbors = 745859
Ave neighs/atom = 361.36579
Ave special neighs/atom = 6.372093
Neighbor list builds = 25145
Dangerous builds = 0
All done!
Total wall time: 2:43:45
