Created on Fri Sep 08 17:03:09 2023 

        1944 atoms
        2304 bonds
        4392 angles
        4608 dihedrals
        3024 impropers

           5 atom types
           7 bond types
          13 angle types
           3 dihedral types
           1 improper types
           0.000000  29.419200 xlo xhi
           0.000000  30.875987 ylo yhi
           0.000000  26.165004 zlo zhi
           8.427661  -9.806645   0.000058 xy xz yz

Masses

    1    58.933195000 # Co6+3
    2     1.007940000 # H_
    3    12.010700000 # C_R
    4    14.006700000 # N_R
    5    15.999400000 # O_R

Bond Coeffs

    1      295.320839        1.908455  # N_R Co6+3
    2      290.836375        1.854815  # Co6+3 O_R
    3      357.440381        1.081418  # C_R H_
    4      462.655054        1.379256  # C_R C_R
    5      663.718927        1.345073  # C_R N_R
    6      391.669513        1.458000  # C_R C_R
    7      646.680887        1.311940  # O_R C_R

Angle Coeffs

    1      163.965015               1               4 # N_R Co6+3 N_R
    2      154.558434               1               4 # N_R Co6+3 O_R
    3      145.987796               1               4 # O_R Co6+3 O_R
    4       57.289016              -1               3 # H_ C_R C_R
    5       79.786967              -1               3 # H_ C_R N_R
    6      153.699352              -1               3 # C_R C_R N_R
    7      111.297508              -1               3 # C_R C_R C_R
    8      102.183280              -1               3 # C_R C_R C_R
    9      131.755710              -1               3 # C_R C_R O_R
   10      187.136328              -1               3 # O_R C_R O_R
   11       82.917736              -1               3 # Co6+3 N_R C_R
   12      120.000516              -1               3 # C_R N_R C_R
   13      111.281425              -1               3 # Co6+3 O_R C_R

Dihedral Coeffs

    1        3.368555              -1               2 # H_ C_R C_R H_
    2        1.250000              -1               2 # O_R C_R C_R C_R
    3        6.737110              -1               2 # Co6+3 O_R C_R C_R

Improper Coeffs

    1        2.000000        1.000000       -1.000000        0.000000               0 # H_ C_R C_R N_R

Pair Coeffs

    1        0.014000        2.558661 # Co6+3 Co6+3
    2        0.044000        2.571134 # H_ H_
    3        0.105000        3.430851 # C_R C_R
    4        0.069000        3.260689 # N_R N_R
    5        0.060000        3.118146 # O_R O_R

Atoms

       1      444        1     0.00000    7.35620    9.05820    3.25519
       2      444        1     0.00000    5.99073    3.95163    9.78466
       3      444        1     0.00000    1.04833    3.91222    9.82731
       4      444        1     0.00000    2.49220    9.09762    3.29784
       5      444        2     0.00000    9.70741    7.89705    1.64578
       6      444        2     0.00000    5.24025    6.58485   12.86533
       7      444        2     0.00000    1.23807    6.32549   12.23999
       8      444        2     0.00000    5.83734    7.63666    1.05707
       9      444        2     0.00000    7.49369    5.05030    7.35498
      10      444        2     0.00000    7.15166    6.29768    5.43185
      11      444        2     0.00000    3.22087    6.55499    6.40258
      12      444        2     0.00000    3.67620    5.25923    8.28907
      13      444        2     0.00000    3.92067    1.71774    4.03464
      14      444        2     0.00000    3.57026    3.04953    5.90282
      15      444        2     0.00000    6.96455   10.11396    8.23674
      16      444        2     0.00000    7.18233    8.83158    6.33978
      17      444        2     0.00000    5.90578    4.18372   12.90196
      18      444        2     0.00000    1.25365    2.90441    1.73474
      19      444        2     0.00000    0.27933   10.08824   12.46239
      20      444        2     0.00000   -3.01295    1.10538   10.61253
      21      444        2     0.00000    3.39951    2.75108   11.43672
      22      444        2     0.00000    8.73895    1.43882    0.21717
      23      444        2     0.00000    4.73677    1.17946    0.84251
      24      444        2     0.00000   -0.47057    2.49069   12.02544
      25      444        2     0.00000    3.99511   10.19629    5.72752
      26      444        2     0.00000    0.84383    1.15169    7.65065
      27      444        2     0.00000    6.71945    1.40899    6.67993
      28      444        2     0.00000    7.17482    0.11322    4.79343
      29      444        2     0.00000    0.42204    6.86375    9.04786
      30      444        2     0.00000    0.07166    8.19553    7.17968
      31      444        2     0.00000    0.65677    4.96796    4.84576
      32      444        2     0.00000    0.87451    3.68558    6.74272
      33      444        2     0.00000   12.21371    9.32969    0.18054
      34      444        2     0.00000    7.56137    8.05042   11.34776
      35      444        2     0.00000    3.77803    4.94222    0.62011
      36      444        2     0.00000    3.29493    6.25136    2.46998
      37      444        3     0.00000    8.97618    7.56771    1.13765
      38      444        3     0.00000    9.24769    6.79478    0.01858
      39      444        3     0.00000    3.28047    6.33166   12.32764
      40      444        3     0.00000    1.98862    6.63939   12.73215
      41      444        3     0.00000    6.72158    7.41641    0.78992
      42      444        3     0.00000    3.53737    5.49080   11.09135
      43      444        3     0.00000    6.61876    5.36215    7.15901
      44      444        3     0.00000    6.42472    6.11346    6.01429
      45      444        3     0.00000    5.16649    6.59101    5.72883
      46      444        3     0.00000    4.10645    6.26064    6.58416
      47      444        3     0.00000    4.39027    5.48977    7.70533
      48      444        3     0.00000    4.90516    7.47303    4.52655
      49      444        3     0.00000    3.95106    1.32253    4.89678
      50      444        3     0.00000    3.74765    2.12222    6.00775
      51      444        3     0.00000    3.80300    1.56337    7.27623
      52      444        3     0.00000    4.07451    0.22644    7.38089
      53      444        3     0.00000    7.04025    9.76609    6.24585
      54      444        3     0.00000    3.54134    2.40114    8.51148
      55      444        3     0.00000   -3.65037    3.27185   12.80986
      56      444        3     0.00000    1.42513    2.51948    0.88412
      57      444        3     0.00000    1.85230    1.19593    0.78495
      58      444        3     0.00000   -2.84544    0.68445   12.57935
      59      444        3     0.00000   -3.10515    1.48619   11.47806
      60      444        3     0.00000    2.09711    0.33244    1.99116
      61      444        3     0.00000    2.66827    2.42173   11.94485
      62      444        3     0.00000    2.93976    1.64881   13.06392
      63      444        3     0.00000    6.77917    1.18564    0.75486
      64      444        3     0.00000    5.48733    1.49337    0.35035
      65      444        3     0.00000    0.41366    2.27044   12.29258
      66      444        3     0.00000    7.03604    0.34479    1.99116
      67      444        3     0.00000    0.31096    0.21615    5.92350
      68      444        3     0.00000    0.11690    0.96746    7.06821
      69      444        3     0.00000   -1.14134    1.44501    7.35367
      70      444        3     0.00000    7.60504    1.11464    6.49834
      71      444        3     0.00000   -1.91751    0.34376    5.37717
      72      444        3     0.00000   -1.40269    2.32704    8.55596
      73      444        3     0.00000    0.45244    6.46854    8.18572
      74      444        3     0.00000    0.24905    7.26822    7.07476
      75      444        3     0.00000    0.30442    6.70936    5.80628
      76      444        3     0.00000    0.57594    5.37243    5.70162
      77      444        3     0.00000    0.73243    4.62009    6.83665
      78      444        3     0.00000    9.84918    7.54713    4.57103
      79      444        3     0.00000    2.65755    8.41782    0.27264
      80      444        3     0.00000   -2.07357    7.66551   12.19839
      81      444        3     0.00000   -1.64640    6.34195   12.29755
      82      444        3     0.00000    3.46248    5.83042    0.50315
      83      444        3     0.00000    3.20276    6.63217    1.60444
      84      444        3     0.00000   -1.40157    5.47845   11.09135
      85      444        4     0.00000    7.74667    7.87029    1.53170
      86      444        4     0.00000    5.62136    5.05648    8.00309
      87      444        4     0.00000    7.00239   10.28480    5.00039
      88      444        4     0.00000   -3.48442    2.78401   11.56990
      89      444        4     0.00000    1.43877    2.72432   11.55080
      90      444        4     0.00000    2.12280   10.20247    5.07941
      91      444        4     0.00000    0.69455    5.13881    8.08211
      92      444        4     0.00000    2.82348    7.92999    1.51260
      93      444        5     0.00000    4.73100    5.17896   10.88307
      94      444        5     0.00000    2.53245    5.23659   10.37704
      95      444        5     0.00000    5.85026    7.71283    3.73976
      96      444        5     0.00000    3.72618    7.89603    4.40540
      97      444        5     0.00000    4.45359    2.58537    9.34378
      98      444        5     0.00000    2.34959    2.80973    8.60986
      99      444        5     0.00000    1.15603    0.22952    2.82294
     100      444        5     0.00000    6.04549   10.14174    2.04715
     101      444        5     0.00000    8.22967    0.03294    2.19943
     102      444        5     0.00000    6.03112    0.09058    2.70546
     103      444        5     0.00000   -0.45760    2.56684    9.34274
     104      444        5     0.00000    7.22473    2.75004    8.67710
     105      444        5     0.00000    0.95506    7.73136    3.73872
     106      444        5     0.00000    8.65744    7.95572    4.47265
     107      444        5     0.00000   -2.34263    5.37553   10.25956
     108      444        5     0.00000   -0.26241    4.99576   11.03535
     109      444        1     0.00000    2.45288    9.05823   16.33769
     110      444        1     0.00000    1.08741    3.95166   22.86717
     111      444        1     0.00000   -3.85499    3.91224   22.90982
     112      444        1     0.00000   -2.41112    9.09765   16.38034
     113      444        2     0.00000    4.80409    7.89708   14.72828
     114      444        2     0.00000    0.33692    6.58488   25.94783
     115      444        2     0.00000   -3.66525    6.32552   25.32249
     116      444        2     0.00000    0.93402    7.63669   14.13957
     117      444        2     0.00000    2.59036    5.05033   20.43748
     118      444        2     0.00000    2.24833    6.29771   18.51436
     119      444        2     0.00000   -1.68246    6.55502   19.48508
     120      444        2     0.00000   -1.22713    5.25926   21.37158
     121      444        2     0.00000   -0.98265    1.71777   17.11715
     122      444        2     0.00000   -1.33306    3.04956   18.98533
     123      444        2     0.00000    2.06123   10.11399   21.31925
     124      444        2     0.00000    2.27900    8.83160   19.42228
     125      444        2     0.00000    1.00245    4.18375   25.98447
     126      444        2     0.00000   -3.64968    2.90443   14.81724
     127      444        2     0.00000   -4.62400   10.08827   25.54489
     128      444        2     0.00000   -7.91627    1.10541   23.69503
     129      444        2     0.00000   -1.50382    2.75110   24.51923
     130      444        2     0.00000    3.83563    1.43885   13.29967
     131      444        2     0.00000   -0.16655    1.17949   13.92502
     132      444        2     0.00000   -5.37389    2.49072   25.10794
     133      444        2     0.00000   -0.90821   10.19632   18.81002
     134      444        2     0.00000   -4.05950    1.15172   20.73315
     135      444        2     0.00000    1.81613    1.40902   19.76243
     136      444        2     0.00000    2.27150    0.11325   17.87593
     137      444        2     0.00000   -4.48128    6.86378   22.13036
     138      444        2     0.00000   -4.83166    8.19556   20.26218
     139      444        2     0.00000   -4.24655    4.96799   17.92826
     140      444        2     0.00000   -4.02881    3.68561   19.82522
     141      444        2     0.00000    7.31038    9.32972   13.26304
     142      444        2     0.00000    2.65804    8.05045   24.43026
     143      444        2     0.00000   -1.12530    4.94225   13.70261
     144      444        2     0.00000   -1.60839    6.25139   15.55248
     145      444        3     0.00000    4.07286    7.56774   14.22016
     146      444        3     0.00000    4.34437    6.79480   13.10108
     147      444        3     0.00000   -1.62285    6.33169   25.41014
     148      444        3     0.00000   -2.91470    6.63942   25.81465
     149      444        3     0.00000    1.81826    7.41644   13.87242
     150      444        3     0.00000   -1.36596    5.49083   24.17385
     151      444        3     0.00000    1.71544    5.36217   20.24151
     152      444        3     0.00000    1.52140    6.11349   19.09679
     153      444        3     0.00000    0.26317    6.59104   18.81133
     154      444        3     0.00000   -0.79687    6.26066   19.66666
     155      444        3     0.00000   -0.51305    5.48980   20.78783
     156      444        3     0.00000    0.00184    7.47306   17.60905
     157      444        3     0.00000   -0.95226    1.32256   17.97928
     158      444        3     0.00000   -1.15567    2.12225   19.09025
     159      444        3     0.00000   -1.10033    1.56340   20.35873
     160      444        3     0.00000   -0.82881    0.22647   20.46339
     161      444        3     0.00000    2.13692    9.76612   19.32835
     162      444        3     0.00000   -1.36199    2.40117   21.59398
     163      444        3     0.00000   -8.55370    3.27188   25.89236
     164      444        3     0.00000   -3.47819    2.51951   13.96662
     165      444        3     0.00000   -3.05102    1.19596   13.86745
     166      444        3     0.00000   -7.74877    0.68447   25.66185
     167      444        3     0.00000   -8.00847    1.48622   24.56057
     168      444        3     0.00000   -2.80621    0.33246   15.07366
     169      444        3     0.00000   -2.23505    2.42176   25.02735
     170      444        3     0.00000   -1.96356    1.64884   26.14643
     171      444        3     0.00000    1.87585    1.18567   13.83736
     172      444        3     0.00000    0.58401    1.49340   13.43285
     173      444        3     0.00000   -4.48966    2.27047   25.37508
     174      444        3     0.00000    2.13272    0.34482   15.07366
     175      444        3     0.00000   -4.59236    0.21617   19.00600
     176      444        3     0.00000   -4.78642    0.96749   20.15072
     177      444        3     0.00000   -6.04466    1.44504   20.43618
     178      444        3     0.00000    2.70172    1.11467   19.58084
     179      444        3     0.00000   -6.82084    0.34379   18.45967
     180      444        3     0.00000   -6.30601    2.32707   21.63846
     181      444        3     0.00000   -4.45088    6.46857   21.26822
     182      444        3     0.00000   -4.65427    7.26825   20.15726
     183      444        3     0.00000   -4.59890    6.70939   18.88878
     184      444        3     0.00000   -4.32738    5.37246   18.78412
     185      444        3     0.00000   -4.17089    4.62012   19.91916
     186      444        3     0.00000    4.94586    7.54716   17.65353
     187      444        3     0.00000   -2.24577    8.41785   13.35514
     188      444        3     0.00000   -6.97689    7.66553   25.28089
     189      444        3     0.00000   -6.54972    6.34198   25.38005
     190      444        3     0.00000   -1.44084    5.83045   13.58566
     191      444        3     0.00000   -1.70057    6.63219   14.68694
     192      444        3     0.00000   -6.30489    5.47848   24.17385
     193      444        4     0.00000    2.84335    7.87032   14.61420
     194      444        4     0.00000    0.71804    5.05650   21.08559
     195      444        4     0.00000    2.09906   10.28483   18.08290
     196      444        4     0.00000   -8.38775    2.78404   24.65241
     197      444        4     0.00000   -3.46456    2.72435   24.63330
     198      444        4     0.00000   -2.78052   10.20250   18.16191
     199      444        4     0.00000   -4.20878    5.13884   21.16461
     200      444        4     0.00000   -2.07984    7.93001   14.59510
     201      444        5     0.00000   -0.17232    5.17899   23.96557
     202      444        5     0.00000   -2.37087    5.23662   23.45954
     203      444        5     0.00000    0.94694    7.71286   16.82227
     204      444        5     0.00000   -1.17714    7.89606   17.48790
     205      444        5     0.00000   -0.44973    2.58540   22.42629
     206      444        5     0.00000   -2.55373    2.80976   21.69236
     207      444        5     0.00000   -3.74729    0.22955   15.90544
     208      444        5     0.00000    1.14216   10.14177   15.12965
     209      444        5     0.00000    3.32635    0.03297   15.28193
     210      444        5     0.00000    1.12779    0.09060   15.78796
     211      444        5     0.00000   -5.36093    2.56687   22.42524
     212      444        5     0.00000    2.32141    2.75007   21.75960
     213      444        5     0.00000   -3.94826    7.73138   16.82122
     214      444        5     0.00000    3.75412    7.95575   17.55515
     215      444        5     0.00000   -7.24595    5.37556   23.34206
     216      444        5     0.00000   -5.16573    4.99579   24.11785
     217      444        1     0.00000   10.16542   19.35019    3.25519
     218      444        1     0.00000    8.79995   14.24363    9.78466
     219      444        1     0.00000    3.85755   14.20421    9.82731
     220      444        1     0.00000    5.30142   19.38961    3.29784
     221      444        2     0.00000   12.51663   18.18905    1.64578
     222      444        2     0.00000    8.04947   16.87684   12.86533
     223      444        2     0.00000    4.04729   16.61748   12.23999
     224      444        2     0.00000    8.64656   17.92866    1.05707
     225      444        2     0.00000   10.30291   15.34229    7.35498
     226      444        2     0.00000    9.96088   16.58968    5.43185
     227      444        2     0.00000    6.03009   16.84698    6.40258
     228      444        2     0.00000    6.48542   15.55122    8.28907
     229      444        2     0.00000    6.72989   12.00974    4.03464
     230      444        2     0.00000    6.37948   13.34153    5.90282
     231      444        2     0.00000    9.77377   20.40596    8.23674
     232      444        2     0.00000    9.99155   19.12357    6.33978
     233      444        2     0.00000    8.71500   14.47572   12.90196
     234      444        2     0.00000    4.06287   13.19640    1.73474
     235      444        2     0.00000    3.08855   20.38024   12.46239
     236      444        2     0.00000   -0.20373   11.39738   10.61253
     237      444        2     0.00000    6.20873   13.04307   11.43672
     238      444        2     0.00000   11.54817   11.73082    0.21717
     239      444        2     0.00000    7.54599   11.47146    0.84251
     240      444        2     0.00000    2.33865   12.78269   12.02544
     241      444        2     0.00000    6.80433   20.48829    5.72752
     242      444        2     0.00000    3.65305   11.44369    7.65065
     243      444        2     0.00000    9.52867   11.70098    6.67993
     244      444        2     0.00000    9.98404   10.40522    4.79343
     245      444        2     0.00000    3.23126   17.15575    9.04786
     246      444        2     0.00000    2.88088   18.48753    7.17968
     247      444        2     0.00000    3.46599   15.25995    4.84576
     248      444        2     0.00000    3.68373   13.97757    6.74272
     249      444        2     0.00000   15.02293   19.62169    0.18054
     250      444        2     0.00000   10.37059   18.34242   11.34776
     251      444        2     0.00000    6.58725   15.23421    0.62011
     252      444        2     0.00000    6.10415   16.54336    2.46998
     253      444        3     0.00000   11.78540   17.85970    1.13765
     254      444        3     0.00000   12.05691   17.08677    0.01858
     255      444        3     0.00000    6.08969   16.62366   12.32764
     256      444        3     0.00000    4.79784   16.93139   12.73215
     257      444        3     0.00000    9.53080   17.70841    0.78992
     258      444        3     0.00000    6.34659   15.78280   11.09135
     259      444        3     0.00000    9.42798   15.65414    7.15901
     260      444        3     0.00000    9.23394   16.40545    6.01429
     261      444        3     0.00000    7.97571   16.88300    5.72883
     262      444        3     0.00000    6.91567   16.55263    6.58416
     263      444        3     0.00000    7.19949   15.78176    7.70533
     264      444        3     0.00000    7.71438   17.76502    4.52655
     265      444        3     0.00000    6.76028   11.61453    4.89678
     266      444        3     0.00000    6.55687   12.41422    6.00775
     267      444        3     0.00000    6.61222   11.85537    7.27623
     268      444        3     0.00000    6.88373   10.51844    7.38089
     269      444        3     0.00000    9.84947   20.05808    6.24585
     270      444        3     0.00000    6.35056   12.69314    8.51148
     271      444        3     0.00000   -0.84115   13.56385   12.80986
     272      444        3     0.00000    4.23435   12.81148    0.88412
     273      444        3     0.00000    4.66152   11.48793    0.78495
     274      444        3     0.00000   -0.03622   10.97644   12.57935
     275      444        3     0.00000   -0.29593   11.77819   11.47806
     276      444        3     0.00000    4.90633   10.62443    1.99116
     277      444        3     0.00000    5.47749   12.71373   11.94485
     278      444        3     0.00000    5.74898   11.94080   13.06392
     279      444        3     0.00000    9.58839   11.47764    0.75486
     280      444        3     0.00000    8.29655   11.78536    0.35035
     281      444        3     0.00000    3.22289   12.56244   12.29258
     282      444        3     0.00000    9.84526   10.63678    1.99116
     283      444        3     0.00000    3.12018   10.50814    5.92350
     284      444        3     0.00000    2.92612   11.25946    7.06821
     285      444        3     0.00000    1.66788   11.73701    7.35367
     286      444        3     0.00000   10.41426   11.40663    6.49834
     287      444        3     0.00000    0.89171   10.63576    5.37717
     288      444        3     0.00000    1.40654   12.61903    8.55596
     289      444        3     0.00000    3.26166   16.76053    8.18572
     290      444        3     0.00000    3.05827   17.56022    7.07476
     291      444        3     0.00000    3.11364   17.00136    5.80628
     292      444        3     0.00000    3.38516   15.66443    5.70162
     293      444        3     0.00000    3.54165   14.91209    6.83665
     294      444        3     0.00000   12.65840   17.83913    4.57103
     295      444        3     0.00000    5.46677   18.70982    0.27264
     296      444        3     0.00000    0.73565   17.95750   12.19839
     297      444        3     0.00000    1.16282   16.63395   12.29755
     298      444        3     0.00000    6.27170   16.12241    0.50315
     299      444        3     0.00000    6.01198   16.92416    1.60444
     300      444        3     0.00000    1.40765   15.77045   11.09135
     301      444        4     0.00000   10.55589   18.16229    1.53170
     302      444        4     0.00000    8.43058   15.34847    8.00309
     303      444        4     0.00000    9.81161   20.57680    5.00039
     304      444        4     0.00000   -0.67520   13.07601   11.56990
     305      444        4     0.00000    4.24799   13.01631   11.55080
     306      444        4     0.00000    4.93202   20.49446    5.07941
     307      444        4     0.00000    3.50377   15.43081    8.08211
     308      444        4     0.00000    5.63270   18.22198    1.51260
     309      444        5     0.00000    7.54022   15.47095   10.88307
     310      444        5     0.00000    5.34167   15.52859   10.37704
     311      444        5     0.00000    8.65948   18.00483    3.73976
     312      444        5     0.00000    6.53540   18.18802    4.40540
     313      444        5     0.00000    7.26282   12.87737    9.34378
     314      444        5     0.00000    5.15881   13.10173    8.60986
     315      444        5     0.00000    3.96525   10.52151    2.82294
     316      444        5     0.00000    8.85471   20.43373    2.04715
     317      444        5     0.00000   11.03889   10.32493    2.19943
     318      444        5     0.00000    8.84034   10.38257    2.70546
     319      444        5     0.00000    2.35162   12.85884    9.34274
     320      444        5     0.00000   10.03395   13.04204    8.67710
     321      444        5     0.00000    3.76428   18.02335    3.73872
     322      444        5     0.00000   11.46666   18.24772    4.47265
     323      444        5     0.00000    0.46659   15.66753   10.25956
     324      444        5     0.00000    2.54681   15.28775   11.03535
     325      444        1     0.00000    5.26210   19.35022   16.33769
     326      444        1     0.00000    3.89663   14.24366   22.86717
     327      444        1     0.00000   -1.04577   14.20424   22.90982
     328      444        1     0.00000    0.39810   19.38964   16.38034
     329      444        2     0.00000    7.61331   18.18908   14.72828
     330      444        2     0.00000    3.14614   16.87687   25.94783
     331      444        2     0.00000   -0.85603   16.61751   25.32249
     332      444        2     0.00000    3.74324   17.92869   14.13957
     333      444        2     0.00000    5.39958   15.34232   20.43748
     334      444        2     0.00000    5.05755   16.58971   18.51436
     335      444        2     0.00000    1.12677   16.84701   19.48508
     336      444        2     0.00000    1.58209   15.55125   21.37158
     337      444        2     0.00000    1.82657   12.00977   17.11715
     338      444        2     0.00000    1.47616   13.34156   18.98533
     339      444        2     0.00000    4.87045   20.40599   21.31925
     340      444        2     0.00000    5.08822   19.12360   19.42228
     341      444        2     0.00000    3.81167   14.47575   25.98447
     342      444        2     0.00000   -0.84046   13.19643   14.81724
     343      444        2     0.00000   -1.81478   20.38027   25.54489
     344      444        2     0.00000   -5.10705   11.39741   23.69503
     345      444        2     0.00000    1.30540   13.04310   24.51923
     346      444        2     0.00000    6.64485   11.73085   13.29967
     347      444        2     0.00000    2.64267   11.47149   13.92502
     348      444        2     0.00000   -2.56467   12.78271   25.10794
     349      444        2     0.00000    1.90101   20.48832   18.81002
     350      444        2     0.00000   -1.25028   11.44372   20.73315
     351      444        2     0.00000    4.62535   11.70101   19.76243
     352      444        2     0.00000    5.08072   10.40525   17.87593
     353      444        2     0.00000   -1.67206   17.15578   22.13036
     354      444        2     0.00000   -2.02244   18.48756   20.26218
     355      444        2     0.00000   -1.43733   15.25998   17.92826
     356      444        2     0.00000   -1.21959   13.97760   19.82522
     357      444        2     0.00000   10.11960   19.62172   13.26304
     358      444        2     0.00000    5.46726   18.34245   24.43026
     359      444        2     0.00000    1.68393   15.23424   13.70261
     360      444        2     0.00000    1.20083   16.54339   15.55248
     361      444        3     0.00000    6.88208   17.85973   14.22016
     362      444        3     0.00000    7.15359   17.08680   13.10108
     363      444        3     0.00000    1.18637   16.62369   25.41014
     364      444        3     0.00000   -0.10548   16.93142   25.81465
     365      444        3     0.00000    4.62748   17.70844   13.87242
     366      444        3     0.00000    1.44326   15.78283   24.17385
     367      444        3     0.00000    4.52466   15.65417   20.24151
     368      444        3     0.00000    4.33062   16.40548   19.09679
     369      444        3     0.00000    3.07239   16.88303   18.81133
     370      444        3     0.00000    2.01235   16.55266   19.66666
     371      444        3     0.00000    2.29617   15.78179   20.78783
     372      444        3     0.00000    2.81106   17.76505   17.60905
     373      444        3     0.00000    1.85696   11.61456   17.97928
     374      444        3     0.00000    1.65355   12.41425   19.09025
     375      444        3     0.00000    1.70889   11.85539   20.35873
     376      444        3     0.00000    1.98041   10.51846   20.46339
     377      444        3     0.00000    4.94614   20.05811   19.32835
     378      444        3     0.00000    1.44723   12.69317   21.59398
     379      444        3     0.00000   -5.74448   13.56388   25.89236
     380      444        3     0.00000   -0.66897   12.81151   13.96662
     381      444        3     0.00000   -0.24180   11.48796   13.86745
     382      444        3     0.00000   -4.93955   10.97647   25.66185