units           real
atom_style      full
boundary        p p p

pair_style      lj/cut 12.500
bond_style      harmonic
angle_style     hybrid fourier cosine/periodic
dihedral_style  harmonic
improper_style  fourier

pair_modify     tail yes mix arithmetic
special_bonds   lj/coul 0.0 0.0 1.0
dielectric      1.0
box tilt        large

The 'box' command has been removed and will be ignored

read_data       data.ITIPAE_clean
Reading data file ...
  triclinic box = (0 0 0) to (34.254 30.111 29.747198) with tilt (0 -22.15673 0)
WARNING: Triclinic box skew is large. LAMMPS will run inefficiently. (../domain.cpp:220)
  2 by 4 by 4 MPI processor grid
  reading atoms ...
  1944 atoms
  scanning bonds ...
  4 = max bonds/atom
  scanning angles ...
  15 = max angles/atom
  scanning dihedrals ...
  6 = max dihedrals/atom
  scanning impropers ...
  6 = max impropers/atom
  reading bonds ...
  2592 bonds
  reading angles ...
  6264 angles
  reading dihedrals ...
  2592 dihedrals
  reading impropers ...
  2592 impropers
Finding 1-2 1-3 1-4 neighbors ...
  special bond factors lj:    0        0        1       
  special bond factors coul:  0        0        1       
     6 = max # of 1-2 neighbors
    12 = max # of 1-3 neighbors
    16 = max # of special neighbors
  special bonds CPU = 0.001 seconds
  read_data CPU = 0.137 seconds

#### Atom Groupings ####
group           fram     id   1:1944
1944 atoms in group fram
#### END Atom Groupings ####


#############################  Equilibration  ###################################
thermo_style 	custom step temp vol
minimize        0.0 1.0e-3 1000 1000
Generated 6 of 6 mixed pair_coeff terms from arithmetic mixing rule
Neighbor list info ...
  update: every = 1 steps, delay = 0 steps, check = yes
  max neighbors/atom: 2000, page size: 100000
  master list distance cutoff = 14.5
  ghost atom cutoff = 14.5
  binsize = 7.25, bins = 8 5 5
  1 neighbor lists, perpetual/occasional/extra = 1 0 0
  (1) pair lj/cut, perpetual
      attributes: half, newton on
      pair build: half/bin/newton/tri
      stencil: half/bin/3d/tri
      bin: standard
WARNING: Inconsistent image flags (../domain.cpp:815)
Per MPI rank memory allocation (min/avg/max) = 16.34 | 16.34 | 16.34 Mbytes
   Step          Temp          Volume    
         0   0              30681.92     
       144   0              30681.92     
Loop time of 0.275815 on 32 procs for 144 steps with 1944 atoms

99.2% CPU use with 32 MPI tasks x no OpenMP threads

Minimization stats:
  Stopping criterion = linesearch alpha is zero
  Energy initial, next-to-last, final = 
      82722.3349526805    64027.806811629    64027.806811629
  Force two-norm initial, final = 5857.5611 1.0623445
  Force max component initial, final = 199.70595 0.05386348
  Final line search alpha, max atom move = 6.1083411e-09 3.2901651e-10
  Iterations, force evaluations = 144 338

MPI task timing breakdown:
Section |  min time  |  avg time  |  max time  |%varavg| %total
---------------------------------------------------------------
Pair    | 0.11011    | 0.11913    | 0.12645    |   1.2 | 43.19
Bond    | 0.0055553  | 0.006203   | 0.006714   |   0.4 |  2.25
Neigh   | 0.0020123  | 0.0021241  | 0.0022688  |   0.1 |  0.77
Comm    | 0.12773    | 0.13621    | 0.14742    |   1.3 | 49.39
Output  | 0          | 0          | 0          |   0.0 |  0.00
Modify  | 0          | 0          | 0          |   0.0 |  0.00
Other   |            | 0.01215    |            |       |  4.40

Nlocal:          60.75 ave          64 max          55 min
Histogram: 4 0 0 4 4 0 0 12 0 8
Nghost:        4482.75 ave        4488 max        4480 min
Histogram: 8 4 8 0 0 4 4 0 0 4
Neighs:          24372 ave       25928 max       22229 min
Histogram: 4 0 4 4 0 0 0 12 4 4

Total # of neighbors = 779904
Ave neighs/atom = 401.18519
Ave special neighs/atom = 8.8148148
Neighbor list builds = 2
Dangerous builds = 0
velocity        all create ${t} 331989 rot yes dist gaussian
velocity        all create 100 331989 rot yes dist gaussian

fix             1 all nvt temp ${t} ${t} ${tdamp}
fix             1 all nvt temp 100 ${t} ${tdamp}
fix             1 all nvt temp 100 100 ${tdamp}
fix             1 all nvt temp 100 100 100
thermo          1000
run             ${d1}
run             200000
Generated 6 of 6 mixed pair_coeff terms from arithmetic mixing rule
WARNING: Inconsistent image flags (../domain.cpp:815)
Per MPI rank memory allocation (min/avg/max) = 15.22 | 15.22 | 15.22 Mbytes
   Step          Temp          Volume    
       144   100            30681.92     
      1000   106.36546      30681.92     
      2000   96.094978      30681.92     
      3000   97.85946       30681.92     
      4000   102.48505      30681.92     
      5000   100.85817      30681.92     
      6000   98.575305      30681.92     
      7000   101.34252      30681.92     
      8000   102.65182      30681.92     
      9000   102.69737      30681.92     
     10000   98.965718      30681.92     
     11000   100.77663      30681.92     
     12000   103.10509      30681.92     
     13000   98.670321      30681.92     
     14000   100.98888      30681.92     
     15000   100.76162      30681.92     
     16000   102.19957      30681.92     
     17000   101.99725      30681.92     
     18000   102.43279      30681.92     
     19000   100.5287       30681.92     
     20000   101.06048      30681.92     
     21000   101.13191      30681.92     
     22000   102.31666      30681.92     
     23000   100.91912      30681.92     
     24000   100.31798      30681.92     
     25000   96.85738       30681.92     
     26000   99.609381      30681.92     
     27000   103.02201      30681.92     
     28000   101.28323      30681.92     
     29000   102.06031      30681.92     
     30000   98.767973      30681.92     
     31000   100.7476       30681.92     
     32000   102.66516      30681.92     
     33000   101.75629      30681.92     
     34000   100.22127      30681.92     
     35000   102.30792      30681.92     
     36000   98.610253      30681.92     
     37000   99.710473      30681.92     
     38000   99.941822      30681.92     
     39000   102.11301      30681.92     
     40000   100.82431      30681.92     
     41000   97.69666       30681.92     
     42000   102.75711      30681.92     
     43000   97.790422      30681.92     
     44000   102.14844      30681.92     
     45000   99.985323      30681.92     
     46000   99.334841      30681.92     
     47000   100.76491      30681.92     
     48000   98.702527      30681.92     
     49000   103.9675       30681.92     
     50000   96.626616      30681.92     
     51000   97.981698      30681.92     
     52000   101.02792      30681.92     
     53000   96.972137      30681.92     
     54000   103.75613      30681.92     
     55000   96.813428      30681.92     
     56000   99.444289      30681.92     
     57000   98.941093      30681.92     
     58000   97.775167      30681.92     
     59000   99.472016      30681.92     
     60000   100.16189      30681.92     
     61000   100.54741      30681.92     
     62000   101.42538      30681.92     
     63000   97.576746      30681.92     
     64000   98.087718      30681.92     
     65000   101.12487      30681.92     
     66000   97.614852      30681.92     
     67000   100.30934      30681.92     
     68000   100.71297      30681.92     
     69000   98.62909       30681.92     
     70000   102.97079      30681.92     
     71000   100.90234      30681.92     
     72000   103.85365      30681.92     
     73000   100.05612      30681.92     
     74000   101.8896       30681.92     
     75000   101.22953      30681.92     
     76000   98.365933      30681.92     
     77000   103.56962      30681.92     
     78000   97.884778      30681.92     
     79000   98.959199      30681.92     
     80000   98.841897      30681.92     
     81000   99.016275      30681.92     
     82000   99.262704      30681.92     
     83000   102.40019      30681.92     
     84000   97.468829      30681.92     
     85000   99.236324      30681.92     
     86000   97.451022      30681.92     
     87000   99.820517      30681.92     
     88000   98.951498      30681.92     
     89000   95.598912      30681.92     
     90000   101.81779      30681.92     
     91000   100.71476      30681.92     
     92000   99.433397      30681.92     
     93000   100.78127      30681.92     
     94000   97.795779      30681.92     
     95000   103.12305      30681.92     
     96000   97.274162      30681.92     
     97000   100.57594      30681.92     
     98000   100.77562      30681.92     
     99000   99.670066      30681.92     
    100000   101.13757      30681.92     
    101000   101.0436       30681.92     
    102000   101.50105      30681.92     
    103000   98.011695      30681.92     
    104000   99.33049       30681.92     
    105000   100.19111      30681.92     
    106000   99.781543      30681.92     
    107000   99.390925      30681.92     
    108000   98.437158      30681.92     
    109000   100.25456      30681.92     
    110000   100.77925      30681.92     
    111000   100.44354      30681.92     
    112000   102.60275      30681.92     
    113000   97.814449      30681.92     
    114000   101.8824       30681.92     
    115000   100.77739      30681.92     
    116000   101.85286      30681.92     
    117000   99.047443      30681.92     
    118000   100.30539      30681.92     
    119000   97.896146      30681.92     
    120000   102.23015      30681.92     
    121000   98.895611      30681.92     
    122000   98.267703      30681.92     
    123000   100.80029      30681.92     
    124000   98.384613      30681.92     
    125000   99.517527      30681.92     
    126000   100.57639      30681.92     
    127000   99.559346      30681.92     
    128000   100.8824       30681.92     
    129000   100.08025      30681.92     
    130000   101.75796      30681.92     
    131000   99.098642      30681.92     
    132000   99.15882       30681.92     
    133000   97.887438      30681.92     
    134000   100.39907      30681.92     
    135000   98.970122      30681.92     
    136000   98.143041      30681.92     
    137000   100.29702      30681.92     
    138000   99.837478      30681.92     
    139000   99.980445      30681.92     
    140000   99.722976      30681.92     
    141000   98.609734      30681.92     
    142000   99.345         30681.92     
    143000   105.17314      30681.92     
    144000   100.24288      30681.92     
    145000   101.28368      30681.92     
    146000   99.534641      30681.92     
    147000   99.979792      30681.92     
    148000   98.11026       30681.92     
    149000   103.19277      30681.92     
    150000   101.00696      30681.92     
    151000   99.832841      30681.92     
    152000   99.206962      30681.92     
    153000   99.311631      30681.92     
    154000   100.61996      30681.92     
    155000   98.298146      30681.92     
    156000   102.76475      30681.92     
    157000   97.249929      30681.92     
    158000   97.991903      30681.92     
    159000   100.24812      30681.92     
    160000   99.721826      30681.92     
    161000   104.43381      30681.92     
    162000   99.445697      30681.92     
    163000   101.33846      30681.92     
    164000   99.714198      30681.92     
    165000   103.73743      30681.92     
    166000   101.22955      30681.92     
    167000   96.934381      30681.92     
    168000   101.96046      30681.92     
    169000   100.64861      30681.92     
    170000   97.753444      30681.92     
    171000   103.59131      30681.92     
    172000   96.913326      30681.92     
    173000   101.23765      30681.92     
    174000   97.014857      30681.92     
    175000   101.30144      30681.92     
    176000   101.89134      30681.92     
    177000   98.02822       30681.92     
    178000   100.80329      30681.92     
    179000   104.75021      30681.92     
    180000   98.702048      30681.92     
    181000   101.1855       30681.92     
    182000   99.568993      30681.92     
    183000   99.238628      30681.92     
    184000   100.89182      30681.92     
    185000   101.4669       30681.92     
    186000   99.584678      30681.92     
    187000   104.53365      30681.92     
    188000   98.623327      30681.92     
    189000   102.59776      30681.92     
    190000   97.573938      30681.92     
    191000   100.97807      30681.92     
    192000   100.62285      30681.92     
    193000   103.09146      30681.92     
    194000   98.826786      30681.92     
    195000   100.18633      30681.92     
    196000   98.804045      30681.92     
    197000   102.09073      30681.92     
    198000   100.09507      30681.92     
    199000   97.798354      30681.92     
    200000   99.811092      30681.92     
    200144   99.912         30681.92     
Loop time of 132.808 on 32 procs for 200000 steps with 1944 atoms

Performance: 130.113 ns/day, 0.184 hours/ns, 1505.936 timesteps/s, 2.928 Matom-step/s
99.6% CPU use with 32 MPI tasks x no OpenMP threads

MPI task timing breakdown:
Section |  min time  |  avg time  |  max time  |%varavg| %total
---------------------------------------------------------------
Pair    | 37.795     | 44.269     | 48.664     |  45.2 | 33.33
Bond    | 2.632      | 3.0706     | 3.4774     |  13.7 |  2.31
Neigh   | 0          | 0          | 0          |   0.0 |  0.00
Comm    | 69.554     | 78.768     | 88.275     |  48.8 | 59.31
Output  | 0.0028107  | 0.0033332  | 0.0161     |   4.0 |  0.00
Modify  | 1.6359     | 5.3831     | 9.6501     | 115.2 |  4.05
Other   |            | 1.314      |            |       |  0.99

Nlocal:          60.75 ave          64 max          55 min
Histogram: 4 0 0 4 4 0 0 12 0 8
Nghost:        4442.75 ave        4447 max        4438 min
Histogram: 8 0 0 0 4 0 12 4 0 4
Neighs:        24400.1 ave       25886 max       21925 min
Histogram: 4 0 0 4 4 0 0 12 0 8

Total # of neighbors = 780804
Ave neighs/atom = 401.64815
Ave special neighs/atom = 8.8148148
Neighbor list builds = 0
Dangerous builds = 0
unfix		1

fix             1 all npt temp ${t} ${t} ${tdamp} tri ${p} ${p} ${pdamp}
fix             1 all npt temp 100 ${t} ${tdamp} tri ${p} ${p} ${pdamp}
fix             1 all npt temp 100 100 ${tdamp} tri ${p} ${p} ${pdamp}
fix             1 all npt temp 100 100 100 tri ${p} ${p} ${pdamp}
fix             1 all npt temp 100 100 100 tri 1 ${p} ${pdamp}
fix             1 all npt temp 100 100 100 tri 1 1 ${pdamp}
fix             1 all npt temp 100 100 100 tri 1 1 1000
thermo          1000
run             ${d2}
run             400000
Generated 6 of 6 mixed pair_coeff terms from arithmetic mixing rule
WARNING: Inconsistent image flags (../domain.cpp:815)
Per MPI rank memory allocation (min/avg/max) = 15.23 | 15.23 | 15.23 Mbytes
   Step          Temp          Volume    
    200144   99.912         30681.92     
    201000   91.3923        25591.676    
    202000   102.09885      25104.674    
    203000   96.149357      24611.348    
    204000   102.11115      25044.49     
    205000   102.50133      24926.365    
    206000   99.481797      24712.649    
    207000   99.76883       25025.617    
    208000   100.07706      24874.774    
    209000   95.781229      24787.181    
    210000   100.63523      25054.016    
    211000   99.070762      24798.332    
    212000   100.96007      24794.084    
    213000   98.115563      24973.516    
    214000   100.85364      24723.705    
    215000   98.925197      24897.452    
    216000   98.218592      25029.082    
    217000   98.021131      24782.545    
    218000   98.557214      24983.486    
    219000   98.977855      24909.829    
    220000   99.62748       24714.906    
    221000   97.538334      24993.594    
    222000   101.19427      24865.958    
    223000   99.59744       24796.052    
    224000   100.52807      25024.5      
    225000   99.797742      24777.964    
    226000   99.370584      24847.338    
    227000   97.675637      24952.198    
    228000   99.658432      24743.998    
    229000   100.82002      24937.815    
    230000   96.861636      24907.866    
    231000   102.33148      24757.997    
    232000   99.054467      24976.777    
    233000   101.44407      24824.329    
    234000   102.76777      24815.31     
    235000   97.931834      24961.346    
    236000   100.59127      24799.964    
    237000   97.56124       24880.581    
    238000   100.89381      24940.114    
    239000   102.15743      24773.75     
    240000   100.48158      24900.257    
    241000   100.63585      24850.816    
    242000   99.302273      24804.696    
    243000   100.21922      24922.929    
    244000   102.16045      24829.06     
    245000   99.54588       24842.595    
    246000   98.421951      24909.235    
    247000   98.399302      24809.592    
    248000   97.480367      24901.467    
    249000   101.97174      24909.062    
    250000   101.13854      24840.505    
    251000   99.045459      24935.123    
    252000   97.675102      24854.77     
    253000   101.56765      24858.2      
    254000   100.81652      24946.585    
    255000   100.65515      24850.957    
    256000   101.22905      24838.834    
    257000   101.47093      24924.062    
    258000   99.010404      24828.957    
    259000   100.28282      24901.093    
    260000   99.365453      24875.029    
    261000   99.635769      24793.66     
    262000   100.68819      24934.325    
    263000   100.83235      24866.809    
    264000   102.09753      24835.567    
    265000   98.549198      24889.275    
    266000   101.9587       24800.47     
    267000   99.171926      24894.014    
    268000   104.11348      24905.199    
    269000   101.46635      24799.844    
    270000   102.08829      24868.834    
    271000   99.225591      24852.353    
    272000   96.936886      24807.899    
    273000   100.23777      24892.991    
    274000   95.333712      24849.157    
    275000   103.65538      24850.616    
    276000   100.21292      24849.718    
    277000   99.76039       24849.94     
    278000   98.57645       24899.989    
    279000   101.37248      24893.779    
    280000   98.000605      24829.638    
    281000   97.799521      24890.023    
    282000   102.26882      24862.209    
    283000   98.661666      24823.726    
    284000   102.05085      24899.351    
    285000   101.78295      24868.449    
    286000   98.158128      24900.432    
    287000   99.525691      24906.694    
    288000   100.60674      24834.804    
    289000   101.99355      24865.692    
    290000   101.45908      24859.115    
    291000   98.282519      24852.095    
    292000   102.23356      24896.006    
    293000   98.974566      24853.81     
    294000   98.114699      24871.671    
    295000   99.691683      24926.892    
    296000   95.281326      24860.789    
    297000   100.12675      24836.043    
    298000   98.568839      24859.109    
    299000   98.981925      24828.151    
    300000   96.55913       24906.073    
    301000   99.03781       24903.82     
    302000   100.16989      24879.725    
    303000   96.518863      24876.886    
    304000   100.59346      24841.212    
    305000   100.42855      24837.085    
    306000   100.24761      24877.775    
    307000   98.047581      24841.188    
    308000   99.81111       24846.404    
    309000   103.61572      24870.697    
    310000   98.365863      24876.202    
    311000   100.7827       24893.31     
    312000   99.441045      24841.785    
    313000   99.47364       24844.762    
    314000   99.886289      24899.689    
    315000   103.27796      24869.687    
    316000   99.881664      24889.295    
    317000   100.65638      24875.348    
    318000   98.743069      24832.673    
    319000   98.336392      24880.146    
    320000   100.82926      24863.424    
    321000   97.788012      24824.871    
    322000   101.38195      24898.12     
    323000   100.38214      24857.755    
    324000   97.547942      24905.103    
    325000   100.80829      24899.168    
    326000   101.04818      24826.215    
    327000   100.48041      24867.972    
    328000   98.9416        24857.051    
    329000   97.490543      24884.613    
    330000   100.09393      24929.87     
    331000   99.277369      24902.773    
    332000   97.499614      24856.897    
    333000   100.31151      24896.763    
    334000   99.920213      24829.542    
    335000   99.684766      24892.464    
    336000   99.972552      24921.352    
    337000   99.605508      24857.259    
    338000   102.54134      24867.992    
    339000   101.62509      24867.096    
    340000   101.37897      24806.722    
    341000   97.682202      24913.061    
    342000   101.15805      24873.645    
    343000   102.06532      24838.867    
    344000   98.489402      24925.536    
    345000   98.144053      24864.676    
    346000   100.1225       24840.802    
    347000   102.45356      24909.443    
    348000   101.17852      24841.01     
    349000   101.87479      24897.919    
    350000   101.17134      24954.635    
    351000   100.15213      24851.413    
    352000   95.672147      24900.865    
    353000   101.22176      24894.962    
    354000   99.592117      24822.32     
    355000   102.45701      24895.864    
    356000   96.593805      24855.702    
    357000   99.653943      24869.975    
    358000   99.31723       24888.914    
    359000   96.840911      24858.871    
    360000   101.77438      24865.12     
    361000   98.237215      24858.595    
    362000   100.18893      24856.207    
    363000   101.84334      24891.15     
    364000   101.04081      24831.915    
    365000   100.19747      24875.984    
    366000   96.993134      24849.814    
    367000   100.33557      24836.586    
    368000   102.13772      24889.42     
    369000   101.47222      24850.793    
    370000   95.952507      24894.074    
    371000   101.57083      24882.766    
    372000   98.226672      24845.623    
    373000   99.387944      24849.666    
    374000   99.034853      24843.288    
    375000   102.38002      24867.326    
    376000   101.72489      24875.266    
    377000   100.09633      24880.634    
    378000   96.828848      24919.299    
    379000   99.542317      24870.778    
    380000   98.932325      24872.894    
    381000   98.288545      24881.262    
    382000   103.20849      24845.526    
    383000   100.91726      24880.029    
    384000   100.07176      24918.254    
    385000   100.78844      24895.579    
    386000   98.848394      24906.276    
    387000   103.26136      24854.746    
    388000   98.30004       24853.528    
    389000   99.459551      24888.748    
    390000   101.35838      24859.17     
    391000   99.666152      24847.471    
    392000   102.18203      24861.946    
    393000   97.884869      24832.064    
    394000   101.33219      24884.764    
    395000   100.26342      24870.865    
    396000   102.79355      24823.143    
    397000   99.975868      24878.281    
    398000   101.15363      24879.571    
    399000   97.000183      24894.08     
    400000   99.811568      24905.679    
    401000   100.39963      24873.007    
    402000   99.427626      24874.9      
    403000   99.136996      24851.112    
    404000   98.521011      24814.358    
    405000   99.978798      24897.274    
    406000   103.28545      24912.517    
    407000   97.746264      24885.317    
    408000   99.047267      24924.972    
    409000   100.49273      24830.116    
    410000   101.55293      24845.212    
    411000   101.68697      24902.698    
    412000   102.88674      24831.845    
    413000   97.209791      24885.733    
    414000   100.31726      24894.351    
    415000   99.492043      24850.958    
    416000   102.2061       24922.301    
    417000   99.84768       24853.622    
    418000   102.65802      24829.399    
    419000   97.849835      24879.585    
    420000   100.97379      24807.954    
    421000   97.461752      24883.683    
    422000   103.06582      24911.537    
    423000   100.19289      24820.906    
    424000   100.13435      24919.256    
    425000   101.45748      24858.264    
    426000   101.44896      24834.488    
    427000   101.02154      24872.885    
    428000   97.11037       24849.739    
    429000   98.98549       24914.107    
    430000   99.394559      24899.334    
    431000   101.85145      24838.497    
    432000   101.98969      24874.812    
    433000   97.63597       24883.621    
    434000   99.609207      24857.029    
    435000   97.388517      24885.465    
    436000   100.14633      24887.812    
    437000   96.668506      24885.982    
    438000   99.750775      24882.389    
    439000   102.88908      24888.183    
    440000   100.22589      24851.196    
    441000   102.80757      24889.486    
    442000   99.173754      24903.116    
    443000   101.5274       24852.72     
    444000   97.818633      24876.016    
    445000   99.494046      24804.043    
    446000   102.51346      24856.872    
    447000   96.842411      24914.753    
    448000   101.34076      24864.154    
    449000   100.62434      24881.553    
    450000   96.963242      24867.592    
    451000   99.02505       24806.652    
    452000   101.14867      24917.163    
    453000   99.200615      24911.388    
    454000   102.88719      24884.534    
    455000   101.11409      24912.599    
    456000   97.339221      24818.376    
    457000   98.761379      24825.446    
    458000   100.93658      24886.981    
    459000   99.724578      24853.909    
    460000   101.92338      24921.984    
    461000   100.27287      24917.912    
    462000   99.067995      24850.472    
    463000   101.36539      24867.852    
    464000   103.25907      24834.04     
    465000   101.11817      24841.304    
    466000   99.943052      24940.847    
    467000   101.11434      24908.511    
    468000   103.84688      24871.49     
    469000   97.039962      24876.3      
    470000   99.147141      24772.595    
    471000   96.004683      24869.862    
    472000   102.50059      24863.677    
    473000   99.899165      24882.835    
    474000   98.900837      24909.108    
    475000   99.905059      24820.601    
    476000   98.519137      24803.6      
    477000   99.713405      24838.762    
    478000   101.43992      24815.557    
    479000   98.862812      24889.309    
    480000   102.06951      24906.6      
    481000   100.28477      24836.182    
    482000   100.35179      24839.29     
    483000   100.1691       24806.481    
    484000   98.995648      24805.726    
    485000   103.92669      24916.412    
    486000   99.708382      24888.931    
    487000   103.84224      24900.517    
    488000   102.32098      24894.062    
    489000   99.567761      24806.501    
    490000   103.97705      24843.987    
    491000   100.00233      24879.89     
    492000   99.801532      24876.473    
    493000   101.27019      24942.613    
    494000   96.968049      24873.986    
    495000   99.723544      24809.247    
    496000   101.16256      24860.815    
    497000   102.61926      24824.135    
    498000   99.787781      24838.38     
    499000   100.24814      24937.962    
    500000   98.276817      24885.93     
    501000   99.944839      24874.868    
    502000   98.26473       24867.033    
    503000   100.10291      24836.413    
    504000   99.761073      24860.228    
    505000   97.885764      24853.231    
    506000   100.56076      24805.932    
    507000   96.935508      24896.462    
    508000   97.60113       24873.75     
    509000   101.62667      24875.595    
    510000   99.094074      24888.828    
    511000   99.379991      24845.681    
    512000   99.188835      24920.357    
    513000   100.50589      24869.725    
    514000   100.93854      24893.711    
    515000   100.04834      24913.168    
    516000   99.888602      24863.534    
    517000   100.68701      24872.158    
    518000   97.418079      24885.287    
    519000   100.35926      24864.191    
    520000   103.83078      24884.9      
    521000   98.44914       24878.252    
    522000   99.20074       24860.59     
    523000   101.36161      24877.508    
    524000   99.235911      24837.548    
    525000   98.204274      24875.683    
    526000   101.87654      24897.697    
    527000   97.841064      24859.479    
    528000   99.98442       24863.418    
    529000   102.59531      24856.351    
    530000   98.591309      24887.448    
    531000   101.46735      24842.45     
    532000   100.28114      24908.932    
    533000   98.605827      24900.878    
    534000   102.36267      24884.311    
    535000   99.786721      24821.424    
    536000   98.962073      24841.805    
    537000   100.76577      24857.962    
    538000   101.10678      24871.988    
    539000   100.01872      24930.849    
    540000   99.470993      24898.837    
    541000   95.08137       24891.429    
    542000   99.670175      24891.275    
    543000   100.40654      24824.841    
    544000   99.152905      24874.679    
    545000   103.39205      24879.384    
    546000   100.74736      24868.753    
    547000   101.73046      24919.203    
    548000   97.302233      24860.078    
    549000   99.163468      24851.306    
    550000   100.21714      24906.264    
    551000   99.595866      24888.019    
    552000   100.20816      24878.998    
    553000   97.562516      24931.068    
    554000   98.390842      24866.89     
    555000   98.688632      24806.403    
    556000   99.670965      24877.426    
    557000   100.86998      24853.387    
    558000   98.040688      24887.754    
    559000   99.789195      24883.324    
    560000   96.772354      24875.586    
    561000   98.807247      24899.813    
    562000   98.767559      24909.576    
    563000   98.932522      24850.602    
    564000   101.1102       24820.08     
    565000   98.595136      24862.322    
    566000   101.90003      24853.335    
    567000   100.08567      24881.495    
    568000   100.19319      24917.171    
    569000   97.017951      24843.589    
    570000   101.21302      24881.362    
    571000   97.642296      24861.477    
    572000   99.518743      24892.544    
    573000   102.96999      24910.615    
    574000   101.54942      24847.537    
    575000   102.04932      24843.955    
    576000   99.237555      24864.89     
    577000   99.412766      24836.278    
    578000   99.592857      24856.064    
    579000   97.617429      24901.592    
    580000   101.16891      24850.257    
    581000   98.68776       24879.436    
    582000   99.066001      24860.681    
    583000   99.577164      24815.148    
    584000   97.06447       24909.982    
    585000   98.71784       24835.319    
    586000   100.44255      24870.083    
    587000   99.335295      24983.057    
    588000   100.73074      24882.494    
    589000   98.277785      24849.693    
    590000   101.29395      24865.29     
    591000   99.156281      24786.326    
    592000   103.10295      24870.564    
    593000   101.78722      24909.979    
    594000   96.968039      24845.889    
    595000   99.500023      24883.956    
    596000   99.104171      24874.69     
    597000   99.336028      24787.61     
    598000   99.592695      24828.633    
    599000   98.31611       24831.071    
    600000   100.00595      24844.425    
    600144   96.023987      24871.524    
Loop time of 355.728 on 32 procs for 400000 steps with 1944 atoms

Performance: 97.153 ns/day, 0.247 hours/ns, 1124.456 timesteps/s, 2.186 Matom-step/s
99.6% CPU use with 32 MPI tasks x no OpenMP threads

MPI task timing breakdown:
Section |  min time  |  avg time  |  max time  |%varavg| %total
---------------------------------------------------------------
Pair    | 103.22     | 129.38     | 156.19     | 143.0 | 36.37
Bond    | 6.3376     | 7.9206     | 9.5148     |  39.5 |  2.23
Neigh   | 0.24854    | 0.25394    | 0.26299    |   1.0 |  0.07
Comm    | 168.61     | 198.72     | 227        | 124.2 | 55.86
Output  | 0.0057058  | 0.0070194  | 0.038235   |   6.7 |  0.00
Modify  | 13.908     | 16.698     | 21.082     |  61.3 |  4.69
Other   |            | 2.744      |            |       |  0.77

Nlocal:          60.75 ave          71 max          51 min
Histogram: 4 2 3 4 3 5 3 0 1 7
Nghost:        4716.66 ave        4751 max        4681 min
Histogram: 2 5 8 1 0 0 0 4 7 5
Neighs:          30079 ave       35285 max       25166 min
Histogram: 4 3 3 4 3 5 2 0 3 5

Total # of neighbors = 962529
Ave neighs/atom = 495.12809
Ave special neighs/atom = 8.8148148
Neighbor list builds = 176
Dangerous builds = 0

reset_timestep  0
#############################  Production ###################################
variable        V       equal vol 		    #Volume variable
variable        a	 	equal cella 		#Lattice variable
variable        b	 	equal cellb 		#Lattice variable
variable        c	 	equal cellc 		#Lattice variable
fix 			4 all ave/time 1 ${d3} ${d3} v_V v_a v_b v_c ave running file results_${t}.txt overwrite
fix 			4 all ave/time 1 400000 ${d3} v_V v_a v_b v_c ave running file results_${t}.txt overwrite
fix 			4 all ave/time 1 400000 400000 v_V v_a v_b v_c ave running file results_${t}.txt overwrite
fix 			4 all ave/time 1 400000 400000 v_V v_a v_b v_c ave running file results_100.txt overwrite
fix 			5 all ave/time 1 10000 10000 v_V v_a v_b v_c file summary_${t}.txt
fix 			5 all ave/time 1 10000 10000 v_V v_a v_b v_c file summary_100.txt
thermo          1000
run             ${d3}
run             400000
Generated 6 of 6 mixed pair_coeff terms from arithmetic mixing rule
WARNING: Inconsistent image flags (../domain.cpp:815)
Per MPI rank memory allocation (min/avg/max) = 15.25 | 15.28 | 15.45 Mbytes
   Step          Temp          Volume    
         0   96.023987      24871.524    
      1000   100.60379      24870.906    
      2000   100.65602      24849.794    
      3000   100.15422      24872.582    
      4000   102.29974      24875.926    
      5000   101.0189       24877.609    
      6000   100.51766      24893.286    
      7000   100.24628      24871.045    
      8000   103.12569      24858.089    
      9000   101.58347      24842.107    
     10000   99.7891        24869.817    
     11000   100.98989      24908.32     
     12000   102.10801      24898.62     
     13000   101.01613      24811.927    
     14000   98.399292      24906.429    
     15000   98.99372       24921.078    
     16000   100.20371      24834.582    
     17000   96.913692      24873.259    
     18000   99.504886      24829.202    
     19000   101.4196       24788.089    
     20000   97.132408      24901.151    
     21000   101.37866      24848.739    
     22000   97.426991      24871.824    
     23000   97.327451      24895.386    
     24000   101.40502      24867.755    
     25000   99.693587      24914.712    
     26000   104.04371      24857.044    
     27000   99.997332      24854.338    
     28000   99.271869      24869.477    
     29000   99.854703      24853.308    
     30000   97.847706      24864.048    
     31000   98.610036      24881.211    
     32000   101.70181      24870.341    
     33000   99.106802      24857.14     
     34000   100.96831      24832.907    
     35000   100.5702       24865.3      
     36000   98.011068      24859.604    
     37000   100.85756      24848.187    
     38000   101.22979      24909.118    
     39000   99.692201      24863.547    
     40000   99.164359      24854.288    
     41000   101.50577      24872.589    
     42000   99.294493      24834.024    
     43000   100.42542      24866.32     
     44000   100.17265      24866.724    
     45000   99.046011      24848        
     46000   101.67479      24873.08     
     47000   98.770571      24871.34     
     48000   101.59458      24837.787    
     49000   97.217748      24909.061    
     50000   99.885082      24878.769    
     51000   101.96159      24866.363    
     52000   101.22575      24895.181    
     53000   100.67097      24867.735    
     54000   99.746225      24852.696    
     55000   101.07269      24827.115    
     56000   97.949339      24850.551    
     57000   99.973437      24856.433    
     58000   100.64473      24938.461    
     59000   100.10739      24873.298    
     60000   103.74106      24891.173    
     61000   100.49685      24846.66     
     62000   98.030368      24793.507    
     63000   102.63929      24877.702    
     64000   98.556849      24883.084    
     65000   99.406854      24854.909    
     66000   97.956393      24928.48     
     67000   99.083488      24915.308    
     68000   101.77556      24860.35     
     69000   98.00221       24870.594    
     70000   100.12792      24828.729    
     71000   99.13584       24875.561    
     72000   100.75913      24936.876    
     73000   103.34325      24861.108    
     74000   97.948372      24910.086    
     75000   99.566728      24910.159    
     76000   100.34162      24845.997    
     77000   99.302432      24916.065    
     78000   100.66105      24827.766    
     79000   96.987123      24879.38     
     80000   100.90592      24927.548    
     81000   101.60898      24815.015    
     82000   97.83781       24884.848    
     83000   101.70931      24882.686    
     84000   97.579697      24807.369    
     85000   98.332358      24890.399    
     86000   100.01228      24909.151    
     87000   100.06792      24845.146    
     88000   97.533129      24897.658    
     89000   98.416514      24844.63     
     90000   104.55425      24841.522    
     91000   101.82169      24948.067    
     92000   101.25251      24844.53     
     93000   97.536742      24855.886    
     94000   99.232736      24915.7      
     95000   101.13773      24809.384    
     96000   99.165649      24885.465    
     97000   100.92588      24898.046    
     98000   100.45185      24818.649    
     99000   98.731342      24915.353    
    100000   101.29743      24900.43     
    101000   98.281738      24858.497    
    102000   96.348959      24922.521    
    103000   99.34607       24861.035    
    104000   97.3632        24848.941    
    105000   101.29684      24929.547    
    106000   103.04498      24856.469    
    107000   100.05183      24875.145    
    108000   99.364108      24903.1      
    109000   102.37997      24888.593    
    110000   97.129816      24892.807    
    111000   98.185678      24889.934    
    112000   94.355227      24879.327    
    113000   100.68947      24928.633    
    114000   104.11489      24834.773    
    115000   98.694558      24848.507    
    116000   102.18845      24891.342    
    117000   98.670378      24854.421    
    118000   101.86541      24927.748    
    119000   103.02735      24878.386    
    120000   102.03582      24886.336    
    121000   98.801836      24918.699    
    122000   99.361846      24818.631    
    123000   98.455891      24821.079    
    124000   100.60667      24858.226    
    125000   100.58419      24848.946    
    126000   98.804689      24878.744    
    127000   97.209561      24898.086    
    128000   97.768869      24840.175    
    129000   99.269586      24852.454    
    130000   100.81559      24847.009    
    131000   98.406556      24847.436    
    132000   99.094276      24867.62     
    133000   101.75717      24894.087    
    134000   99.616371      24873.857    
    135000   103.61626      24852.752    
    136000   102.17618      24843.648    
    137000   100.13204      24815.17     
    138000   100.60115      24892.166    
    139000   99.745431      24866.888    
    140000   98.096829      24903.812    
    141000   98.756135      24899.701    
    142000   99.228813      24840.004    
    143000   100.22573      24813.117    
    144000   100.2562       24872.281    
    145000   100.36622      24887.855    
    146000   101.34754      24919.735    
    147000   98.264421      24916.017    
    148000   100.43139      24874.368    
    149000   98.058577      24875.388    
    150000   100.37629      24837.027    
    151000   99.365587      24852.388    
    152000   99.531132      24863.808    
    153000   99.095395      24852.629    
    154000   102.02128      24894.466    
    155000   99.271973      24934.181    
    156000   99.252778      24846.679    
    157000   100.27046      24854.209    
    158000   103.07236      24872.136    
    159000   100.7406       24871.37     
    160000   106.02785      24852.232    
    161000   98.135603      24858.344    
    162000   100.25954      24848.55     
    163000   103.76831      24842.98     
    164000   105.58478      24850.634    
    165000   100.4176       24878.456    
    166000   98.77811       24929.089    
    167000   104.73152      24917.461    
    168000   99.438804      24872.968    
    169000   97.348425      24851.183    
    170000   101.16345      24896.859    
    171000   95.892066      24880.592    
    172000   102.02446      24875.978    
    173000   99.062575      24858.456    
    174000   102.31         24896.972    
    175000   98.483398      24840.259    
    176000   101.09867      24860.196    
    177000   101.308        24839.606    
    178000   98.38608       24842.232    
    179000   97.919306      24915.75     
    180000   102.45506      24865.45     
    181000   100.76207      24847.672    
    182000   101.86058      24907.48     
    183000   101.0225       24819.384    
    184000   101.00069      24898.118    
    185000   104.39589      24881.725    
    186000   99.581428      24856.283    
    187000   99.896866      24899.17     
    188000   100.80042      24883.038    
    189000   98.15807       24875.755    
    190000   105.90008      24853.664    
    191000   102.74003      24843.08     
    192000   101.99156      24863.788    
    193000   100.32734      24858.272    
    194000   98.036183      24882.143    
    195000   99.643999      24842.566    
    196000   101.06875      24858.895    
    197000   97.088913      24870.66     
    198000   99.999391      24865.287    
    199000   98.024394      24893.892    
    200000   102.34581      24921.775    
    201000   99.981467      24845.164    
    202000   100.69337      24892.008    
    203000   101.25485      24874.375    
    204000   100.61862      24801.197    
    205000   99.879551      24888.848    
    206000   99.809706      24884.501    
    207000   105.35042      24873.98     
    208000   99.334048      24871.154    
    209000   104.19421      24848.504    
    210000   98.855939      24824.838    
    211000   100.33493      24888.957    
    212000   99.067089      24854.975    
    213000   100.54072      24896.329    
    214000   101.19632      24909.778    
    215000   99.63562       24872.354    
    216000   98.121136      24942.72     
    217000   100.92116      24913.895    
    218000   100.35469      24850.489    
    219000   102.49272      24903.334    
    220000   101.53626      24867.766    
    221000   99.663106      24856.285    
    222000   101.62611      24899.686    
    223000   100.31541      24852.01     
    224000   95.323939      24854.612    
    225000   99.059781      24874.771    
    226000   96.901604      24813.367    
    227000   103.29083      24893.7      
    228000   101.33971      24885.267    
    229000   98.484362      24817.112    
    230000   99.840473      24899.609    
    231000   101.40068      24857.481    
    232000   101.82261      24867.652    
    233000   99.772822      24871.686    
    234000   99.299303      24838.161    
    235000   98.047233      24876.142    
    236000   98.309358      24918.629    
    237000   102.6106       24842.585    
    238000   99.676825      24912.123    
    239000   99.514242      24830.839    
    240000   101.70329      24865.383    
    241000   98.582455      24862.646    
    242000   101.83766      24853.01     
    243000   99.060586      24890.354    
    244000   101.02954      24878.342    
    245000   98.613253      24852.458    
    246000   100.97084      24879.379    
    247000   102.91179      24861.961    
    248000   100.53238      24877.227    
    249000   103.63196      24861.16     
    250000   101.57229      24829.845    
    251000   98.818549      24863.396    
    252000   102.59333      24870.331    
    253000   100.47222      24862.183    
    254000   99.876431      24841.644    
    255000   102.87745      24828.151    
    256000   102.37389      24843.546    
    257000   100.4604       24920.083    
    258000   100.42537      24852.198    
    259000   98.305423      24853.827    
    260000   99.831513      24872.666    
    261000   102.07803      24800.324    
    262000   102.36057      24871.762    
    263000   98.55139       24891.523    
    264000   102.33414      24845.391    
    265000   98.890416      24965.106    
    266000   99.119414      24839.389    
    267000   100.89027      24826.263    
    268000   100.32759      24922.97     
    269000   101.55729      24778.472    
    270000   99.906009      24875.146    
    271000   100.41468      24959.516    
    272000   99.915217      24842.924    
    273000   99.537663      24954.616    
    274000   101.70526      24910.478    
    275000   97.703991      24824.761    
    276000   99.309095      24886.519    
    277000   99.936682      24820.399    
    278000   101.89167      24848.49     
    279000   101.88188      24940.96     
    280000   98.343382      24887.071    
    281000   99.4982        24887.254    
    282000   100.46479      24915.804    
    283000   99.536348      24814.019    
    284000   99.162273      24834.979    
    285000   101.01008      24864.094    
    286000   98.559262      24827.854    
    287000   100.49247      24891.058    
    288000   99.062026      24840.191    
    289000   102.82542      24852.782    
    290000   98.845821      24938.183    
    291000   103.19233      24847.146    
    292000   100.03865      24872.16     
    293000   101.7645       24900.682    
    294000   99.329529      24815.214    
    295000   96.750905      24919.672    
    296000   103.74292      24879.227    
    297000   99.165608      24838.244    
    298000   99.407281      24964.19     
    299000   96.550215      24836.968    
    300000   100.59409      24875.109    
    301000   102.18445      24928.187    
    302000   98.539049      24813.828    
    303000   101.35304      24855.155    
    304000   100.93761      24869.5      
    305000   99.5693        24858.857    
    306000   105.07656      24941.054    
    307000   99.69351       24903.027    
    308000   100.67205      24831.535    
    309000   102.22008      24948.186    
    310000   98.672211      24848.022    
    311000   98.472012      24892.618    
    312000   97.915877      24932.501    
    313000   98.667341      24850.52     
    314000   102.51087      24879.903    
    315000   101.62673      24898.681    
    316000   99.21222       24839.685    
    317000   101.39485      24915.382    
    318000   99.435165      24897.111    
    319000   100.00402      24814.33     
    320000   97.712303      24901.468    
    321000   101.02209      24882.744    
    322000   98.930125      24815.176    
    323000   99.616327      24946.092    
    324000   103.02771      24867.479    
    325000   98.362577      24824.882    
    326000   100.22356      24906.577    
    327000   102.05277      24806.396    
    328000   100.22438      24845.666    
    329000   98.810179      24890.407    
    330000   101.99287      24828.374    
    331000   99.577716      24902.365    
    332000   99.834664      24904.472    
    333000   97.845857      24812.942    
    334000   101.01621      24881.946    
    335000   100.11175      24911.285    
    336000   102.08279      24853.905    
    337000   100.45593      24937.846    
    338000   101.91428      24891.411    
    339000   101.81493      24834.273    
    340000   101.47632      24895.426    
    341000   102.65763      24883.996    
    342000   99.63673       24843.844    
    343000   98.091458      24924.201    
    344000   100.75454      24874.547    
    345000   97.761655      24858.351    
    346000   100.91418      24864.235    
    347000   102.80165      24757.654    
    348000   100.16288      24842.485    
    349000   102.05718      24858.808    
    350000   101.44306      24842.751    
    351000   98.437978      24940.611    
    352000   102.27352      24908.469    
    353000   99.831052      24823.835    
    354000   100.61035      24851.502    
    355000   99.479568      24844.822    
    356000   98.954686      24848.46     
    357000   100.24662      24928.74     
    358000   97.910091      24878.261    
    359000   98.585078      24841.863    
    360000   97.069473      24857.777    
    361000   98.539816      24827.157    
    362000   99.836894      24827.492    
    363000   99.355185      24882.569    
    364000   102.28241      24918.919    
    365000   96.785336      24930.631    
    366000   100.55942      24879.139    
    367000   97.972138      24820.269    
    368000   104.45673      24843.105    
    369000   97.882045      24818.07     
    370000   101.9838       24839.71     
    371000   98.099811      24906.43     
    372000   98.463835      24912.581    
    373000   99.974195      24930.48     
    374000   96.236273      24860.632    
    375000   101.42248      24813.039    
    376000   98.441618      24884.356    
    377000   98.106742      24860.67     
    378000   99.969822      24911.306    
    379000   96.650994      24955.779    
    380000   98.136317      24876.337    
    381000   101.70351      24877.739    
    382000   99.896802      24852.24     
    383000   98.138607      24851.097    
    384000   101.18814      24920.649    
    385000   97.491388      24835.297    
    386000   100.62354      24853.514    
    387000   103.16303      24903.808    
    388000   99.493929      24836.994    
    389000   103.21931      24865.105    
    390000   99.116728      24829.725    
    391000   100.3219       24828.138    
    392000   99.428811      24913.037    
    393000   101.56576      24876.99     
    394000   99.182205      24863.889    
    395000   97.332373      24883.779    
    396000   99.155852      24826.84     
    397000   103.11476      24851.737    
    398000   100.58486      24868.203    
    399000   99.108651      24848.685    
    400000   102.43368      24933.125    
Loop time of 362.254 on 32 procs for 400000 steps with 1944 atoms

Performance: 95.403 ns/day, 0.252 hours/ns, 1104.197 timesteps/s, 2.147 Matom-step/s
99.6% CPU use with 32 MPI tasks x no OpenMP threads

MPI task timing breakdown:
Section |  min time  |  avg time  |  max time  |%varavg| %total
---------------------------------------------------------------
Pair    | 104.75     | 130.26     | 156.28     | 142.8 | 35.96
Bond    | 6.3314     | 7.9293     | 9.4588     |  39.6 |  2.19
Neigh   | 0.19457    | 0.19776    | 0.20419    |   0.7 |  0.05
Comm    | 172.65     | 200.77     | 228.29     | 123.9 | 55.42
Output  | 0.0067171  | 0.0082829  | 0.038972   |   6.1 |  0.00
Modify  | 17.397     | 20.248     | 24.749     |  57.1 |  5.59
Other   |            | 2.839      |            |       |  0.78

Nlocal:          60.75 ave          71 max          51 min
Histogram: 3 5 1 4 3 3 3 1 3 6
Nghost:        4722.12 ave        4758 max        4688 min
Histogram: 4 7 4 1 0 0 3 2 5 6
Neighs:        30090.3 ave       34966 max       25210 min
Histogram: 6 2 1 7 0 3 3 1 4 5

Total # of neighbors = 962890
Ave neighs/atom = 495.31379
Ave special neighs/atom = 8.8148148
Neighbor list builds = 135
Dangerous builds = 0

unfix           1

print "All done!"
All done!
clear
next t
jump in.ITIPAE_clean
#========================= List of variables =========================#
variable        t  index 100 200 300 400 500			# Temperature in Kelvin
variable        p  index 1			# Pressure in atm
variable        dt         equal 1.00
variable        pdamp      equal 1000*${dt}
variable        pdamp      equal 1000*1
variable        tdamp      equal 100*${dt}
variable        tdamp      equal 100*1
variable        s  index 1					# Time step
variable        k  index 10000				# snapshots interval
variable        d1 index 200000			# NVT time (200 ns)
variable        d2 index 400000			# NPT Equilibration time (400 ps)
variable        d3 index 400000			# NPT Production time (400 ps)

#========================== Force Field  =============================#



log             log.ITIPAE_clean append
units           real
atom_style      full
boundary        p p p

pair_style      lj/cut 12.500
bond_style      harmonic
angle_style     hybrid fourier cosine/periodic
dihedral_style  harmonic
improper_style  fourier

pair_modify     tail yes mix arithmetic
special_bonds   lj/coul 0.0 0.0 1.0
dielectric      1.0
box tilt        large

The 'box' command has been removed and will be ignored

read_data       data.ITIPAE_clean
Reading data file ...
  triclinic box = (0 0 0) to (34.254 30.111 29.747198) with tilt (0 -22.15673 0)
WARNING: Triclinic box skew is large. LAMMPS will run inefficiently. (../domain.cpp:220)
  2 by 4 by 4 MPI processor grid
  reading atoms ...
  1944 atoms
  scanning bonds ...
  4 = max bonds/atom
  scanning angles ...
  15 = max angles/atom
  scanning dihedrals ...
  6 = max dihedrals/atom
  scanning impropers ...
  6 = max impropers/atom
  reading bonds ...
  2592 bonds
  reading angles ...
  6264 angles
  reading dihedrals ...
  2592 dihedrals
  reading impropers ...
  2592 impropers
Finding 1-2 1-3 1-4 neighbors ...
  special bond factors lj:    0        0        1       
  special bond factors coul:  0        0        1       
     6 = max # of 1-2 neighbors
    12 = max # of 1-3 neighbors
    16 = max # of special neighbors
  special bonds CPU = 0.001 seconds
  read_data CPU = 0.042 seconds

#### Atom Groupings ####
group           fram     id   1:1944
1944 atoms in group fram
#### END Atom Groupings ####


#############################  Equilibration  ###################################
thermo_style 	custom step temp vol
minimize        0.0 1.0e-3 1000 1000
Generated 6 of 6 mixed pair_coeff terms from arithmetic mixing rule
Neighbor list info ...
  update: every = 1 steps, delay = 0 steps, check = yes
  max neighbors/atom: 2000, page size: 100000
  master list distance cutoff = 14.5
  ghost atom cutoff = 14.5
  binsize = 7.25, bins = 8 5 5
  1 neighbor lists, perpetual/occasional/extra = 1 0 0
  (1) pair lj/cut, perpetual
      attributes: half, newton on
      pair build: half/bin/newton/tri
      stencil: half/bin/3d/tri
      bin: standard
WARNING: Inconsistent image flags (../domain.cpp:815)
Per MPI rank memory allocation (min/avg/max) = 16.34 | 16.34 | 16.34 Mbytes
   Step          Temp          Volume    
         0   0              30681.92     
       144   0              30681.92     
Loop time of 0.269661 on 32 procs for 144 steps with 1944 atoms

99.6% CPU use with 32 MPI tasks x no OpenMP threads

Minimization stats:
  Stopping criterion = linesearch alpha is zero
  Energy initial, next-to-last, final = 
      82722.3349526805    64027.806811629    64027.806811629
  Force two-norm initial, final = 5857.5611 1.0623445
  Force max component initial, final = 199.70595 0.05386348
  Final line search alpha, max atom move = 6.1083411e-09 3.2901651e-10
  Iterations, force evaluations = 144 338

MPI task timing breakdown:
Section |  min time  |  avg time  |  max time  |%varavg| %total
---------------------------------------------------------------
Pair    | 0.11187    | 0.11945    | 0.12665    |   1.2 | 44.29
Bond    | 0.0056446  | 0.0062623  | 0.0067462  |   0.4 |  2.32
Neigh   | 0.0020158  | 0.0021345  | 0.0022633  |   0.1 |  0.79
Comm    | 0.12295    | 0.13097    | 0.13944    |   1.2 | 48.57
Output  | 0          | 0          | 0          |   0.0 |  0.00
Modify  | 0          | 0          | 0          |   0.0 |  0.00
Other   |            | 0.01085    |            |       |  4.02

Nlocal:          60.75 ave          64 max          55 min
Histogram: 4 0 0 4 4 0 0 12 0 8
Nghost:        4482.75 ave        4488 max        4480 min
Histogram: 8 4 8 0 0 4 4 0 0 4
Neighs:          24372 ave       25928 max       22229 min
Histogram: 4 0 4 4 0 0 0 12 4 4

Total # of neighbors = 779904
Ave neighs/atom = 401.18519
Ave special neighs/atom = 8.8148148
Neighbor list builds = 2
Dangerous builds = 0
velocity        all create ${t} 331989 rot yes dist gaussian
velocity        all create 200 331989 rot yes dist gaussian

fix             1 all nvt temp ${t} ${t} ${tdamp}
fix             1 all nvt temp 200 ${t} ${tdamp}
fix             1 all nvt temp 200 200 ${tdamp}
fix             1 all nvt temp 200 200 100
thermo          1000
run             ${d1}
run             200000
Generated 6 of 6 mixed pair_coeff terms from arithmetic mixing rule
WARNING: Inconsistent image flags (../domain.cpp:815)
Per MPI rank memory allocation (min/avg/max) = 15.22 | 15.22 | 15.22 Mbytes
   Step          Temp          Volume    
       144   200            30681.92     
      1000   208.93557      30681.92     
      2000   194.41639      30681.92     
      3000   198.7599       30681.92     
      4000   203.5908       30681.92     
      5000   191.91113      30681.92     
      6000   201.40876      30681.92     
      7000   203.81437      30681.92     
      8000   195.62571      30681.92     
      9000   202.68958      30681.92     
     10000   195.74501      30681.92     
     11000   202.61463      30681.92     
     12000   196.3636       30681.92     
     13000   201.45422      30681.92     
     14000   197.89282      30681.92     
     15000   193.38167      30681.92     
     16000   204.05264      30681.92     
     17000   204.91169      30681.92     
     18000   199.28446      30681.92     
     19000   205.41809      30681.92     
     20000   198.94462      30681.92     
     21000   199.05372      30681.92     
     22000   200.01393      30681.92     
     23000   196.58664      30681.92     
     24000   195.84544      30681.92     
     25000   200.63045      30681.92     
     26000   203.32103      30681.92     
     27000   200.6934       30681.92     
     28000   196.58835      30681.92     
     29000   200.28631      30681.92     
     30000   196.10153      30681.92     
     31000   202.2475       30681.92     
     32000   201.10611      30681.92     
     33000   199.7905       30681.92     
     34000   200.51793      30681.92     
     35000   203.99229      30681.92     
     36000   199.24278      30681.92     
     37000   204.26385      30681.92     
     38000   202.7112       30681.92     
     39000   195.572        30681.92     
     40000   197.83622      30681.92     
     41000   204.77193      30681.92     
     42000   202.95021      30681.92     
     43000   197.6942       30681.92     
     44000   197.58579      30681.92     
     45000   198.8224       30681.92     
     46000   199.00416      30681.92     
     47000   194.89462      30681.92     
     48000   200.81445      30681.92     
     49000   199.21081      30681.92     
     50000   202.84135      30681.92     
     51000   196.35233      30681.92     
     52000   201.40356      30681.92     
     53000   202.95543      30681.92     
     54000   196.87575      30681.92     
     55000   204.29443      30681.92     
     56000   198.97496      30681.92     
     57000   191.75984      30681.92     
     58000   205.4721       30681.92     
     59000   202.64565      30681.92     
     60000   193.59842      30681.92     
     61000   202.99526      30681.92     
     62000   203.31458      30681.92     
     63000   197.05506      30681.92     
     64000   202.49744      30681.92     
     65000   197.80828      30681.92     
     66000   202.35289      30681.92     
     67000   200.58871      30681.92     
     68000   201.74087      30681.92     
     69000   203.36749      30681.92     
     70000   200.08855      30681.92     
     71000   197.65416      30681.92     
     72000   198.78344      30681.92     
     73000   203.59746      30681.92     
     74000   200.94479      30681.92     
     75000   202.67781      30681.92     
     76000   195.26928      30681.92     
     77000   190.85378      30681.92     
     78000   204.37539      30681.92     
     79000   198.42229      30681.92     
     80000   197.01711      30681.92     
     81000   200.40339      30681.92     
     82000   197.7761       30681.92     
     83000   202.44924      30681.92     
     84000   196.04497      30681.92     
     85000   201.69533      30681.92     
     86000   197.34601      30681.92     
     87000   198.37835      30681.92     
     88000   199.6359       30681.92     
     89000   197.469        30681.92     
     90000   203.71741      30681.92     
     91000   203.29555      30681.92     
     92000   201.21926      30681.92     
     93000   203.28235      30681.92     
     94000   200.54247      30681.92     
     95000   197.76788      30681.92     
     96000   203.17246      30681.92     
     97000   199.3415       30681.92     
     98000   199.76113      30681.92     
     99000   202.10824      30681.92     
    100000   204.09984      30681.92     
    101000   191.94528      30681.92     
    102000   204.26198      30681.92     
    103000   196.65453      30681.92     
    104000   194.0918       30681.92     
    105000   206.85901      30681.92     
    106000   195.16732      30681.92     
    107000   200.15414      30681.92     
    108000   195.96195      30681.92     
    109000   199.31256      30681.92     
    110000   198.96735      30681.92     
    111000   206.11362      30681.92     
    112000   203.76337      30681.92     
    113000   199.7881       30681.92     
    114000   201.20672      30681.92     
    115000   198.37181      30681.92     
    116000   199.97561      30681.92     
    117000   201.37834      30681.92     
    118000   200.65924      30681.92     
    119000   198.80466      30681.92     
    120000   195.88239      30681.92     
    121000   197.2701       30681.92     
    122000   199.88703      30681.92     
    123000   201.24509      30681.92     
    124000   195.01949      30681.92     
    125000   202.58252      30681.92     
    126000   196.36865      30681.92     
    127000   198.81522      30681.92     
    128000   201.75062      30681.92     
    129000   196.16461      30681.92     
    130000   205.04501      30681.92     
    131000   201.86502      30681.92     
    132000   201.12378      30681.92     
    133000   202.15835      30681.92     
    134000   202.11803      30681.92     
    135000   202.13396      30681.92     
    136000   202.18866      30681.92     
    137000   196.14891      30681.92     
    138000   202.67787      30681.92     
    139000   205.64553      30681.92     
    140000   194.65796      30681.92     
    141000   200.35963      30681.92     
    142000   194.72292      30681.92     
    143000   206.69961      30681.92     
    144000   200.36661      30681.92     
    145000   204.6881       30681.92     
    146000   198.38269      30681.92     
    147000   203.14018      30681.92     
    148000   196.68626      30681.92     
    149000   200.89058      30681.92     
    150000   193.47799      30681.92     
    151000   206.11761      30681.92     
    152000   198.16186      30681.92     
    153000   195.51754      30681.92     
    154000   199.14196      30681.92     
    155000   200.90707      30681.92     
    156000   198.8243       30681.92     
    157000   201.4984       30681.92     
    158000   200.68435      30681.92     
    159000   201.10617      30681.92     
    160000   202.82346      30681.92     
    161000   204.03899      30681.92     
    162000   198.45031      30681.92     
    163000   205.49467      30681.92     
    164000   207.15515      30681.92     
    165000   195.73512      30681.92     
    166000   194.78594      30681.92     
    167000   201.76839      30681.92     
    168000   198.11446      30681.92     
    169000   209.17995      30681.92     
    170000   196.53041      30681.92     
    171000   203.20137      30681.92     
    172000   201.47336      30681.92     
    173000   198.63489      30681.92     
    174000   203.35202      30681.92     
    175000   195.94318      30681.92     
    176000   203.6641       30681.92     
    177000   193.34035      30681.92     
    178000   202.71507      30681.92     
    179000   198.2589       30681.92     
    180000   200.99297      30681.92     
    181000   199.04852      30681.92     
    182000   201.40801      30681.92     
    183000   200.74535      30681.92     
    184000   201.80094      30681.92     
    185000   197.59198      30681.92     
    186000   206.24008      30681.92     
    187000   194.63019      30681.92     
    188000   202.23719      30681.92     
    189000   198.58823      30681.92     
    190000   198.16308      30681.92     
    191000   200.87459      30681.92     
    192000   194.6193       30681.92     
    193000   201.24349      30681.92     
    194000   199.07748      30681.92     
    195000   205.93658      30681.92     
    196000   198.35862      30681.92     
    197000   202.49164      30681.92     
    198000   204.23694      30681.92     
    199000   196.5097       30681.92     
    200000   206.49118      30681.92     
    200144   195.27135      30681.92     
Loop time of 128.665 on 32 procs for 200000 steps with 1944 atoms

Performance: 134.303 ns/day, 0.179 hours/ns, 1554.429 timesteps/s, 3.022 Matom-step/s
99.6% CPU use with 32 MPI tasks x no OpenMP threads

MPI task timing breakdown:
Section |  min time  |  avg time  |  max time  |%varavg| %total
---------------------------------------------------------------
Pair    | 37.223     | 43.918     | 47.611     |  43.1 | 34.13
Bond    | 2.6577     | 3.0659     | 3.3809     |  12.6 |  2.38
Neigh   | 0          | 0          | 0          |   0.0 |  0.00
Comm    | 71.009     | 76.365     | 84.116     |  36.5 | 59.35
Output  | 0.0026721  | 0.0032141  | 0.016264   |   4.1 |  0.00
Modify  | 3.1637     | 3.9051     | 5.5945     |  44.8 |  3.04
Other   |            | 1.407      |            |       |  1.09

Nlocal:          60.75 ave          64 max          55 min
Histogram: 4 0 0 4 4 0 0 12 0 8
Nghost:        4442.75 ave        4447 max        4438 min
Histogram: 8 0 0 0 4 0 12 4 0 4
Neighs:        24400.1 ave       25886 max       21925 min
Histogram: 4 0 0 4 4 0 0 12 0 8

Total # of neighbors = 780804
Ave neighs/atom = 401.64815
Ave special neighs/atom = 8.8148148
Neighbor list builds = 0
Dangerous builds = 0
unfix		1

fix             1 all npt temp ${t} ${t} ${tdamp} tri ${p} ${p} ${pdamp}
fix             1 all npt temp 200 ${t} ${tdamp} tri ${p} ${p} ${pdamp}
fix             1 all npt temp 200 200 ${tdamp} tri ${p} ${p} ${pdamp}
fix             1 all npt temp 200 200 100 tri ${p} ${p} ${pdamp}
fix             1 all npt temp 200 200 100 tri 1 ${p} ${pdamp}
fix             1 all npt temp 200 200 100 tri 1 1 ${pdamp}
fix             1 all npt temp 200 200 100 tri 1 1 1000
thermo          1000
run             ${d2}
run             400000
Generated 6 of 6 mixed pair_coeff terms from arithmetic mixing rule
WARNING: Inconsistent image flags (../domain.cpp:815)
Per MPI rank memory allocation (min/avg/max) = 15.23 | 15.23 | 15.23 Mbytes
   Step          Temp          Volume    
    200144   195.27135      30681.92     
    201000   198.84205      25314.374    
    202000   196.95764      25014.007    
    203000   200.21974      24714.428    
    204000   203.33643      24885.277    
    205000   199.245        25054.683    
    206000   201.30567      24757.69     
    207000   199.35439      24806.701    
    208000   198.16709      24991.328    
    209000   195.71397      24881.478    
    210000   201.45166      24769.647    
    211000   194.84872      24913.656    
    212000   203.84871      24844.476    
    213000   199.40945      24843.363    
    214000   200.53453      24895.543    
    215000   197.96259      24957.683    
    216000   198.80027      24781.135    
    217000   209.20636      24832.73     
    218000   198.32238      24947.361    
    219000   196.9806       24891.453    
    220000   203.11145      24816.67     
    221000   205.54058      24902.103    
    222000   202.69142      24954.095    
    223000   196.24652      24777.489    
    224000   208.21057      24891.325    
    225000   201.91976      25015.201    
    226000   199.08902      24753.31     
    227000   203.6624       24805.73     
    228000   199.86766      25014.489    
    229000   198.34348      24842.592    
    230000   197.45975      24750.35     
    231000   198.59184      24969.763    
    232000   202.83786      24927.066    
    233000   195.78848      24788.408    
    234000   200.05631      24857.461    
    235000   201.74686      24969.432    
    236000   195.09784      24876.935    
    237000   198.74272      24800.306    
    238000   201.61345      24942.093    
    239000   200.38175      24902.625    
    240000   201.15925      24722.098    
    241000   200.96423      24976.17     
    242000   204.51551      24982.339    
    243000   198.43058      24749.946    
    244000   199.49843      24893.284    
    245000   198.26255      24965.184    
    246000   206.10444      24715.002    
    247000   199.5411       24858.16     
    248000   197.46094      24960.006    
    249000   194.28116      24799.826    
    250000   193.19582      24848.641    
    251000   198.14495      24953.441    
    252000   199.82863      24837.839    
    253000   195.28954      24829.623    
    254000   204.8181       24983.291    
    255000   202.64389      24843.018    
    256000   199.26399      24836.04     
    257000   203.42878      25018.162    
    258000   197.95691      24821.574    
    259000   203.34346      24828.88     
    260000   196.25565      24960.391    
    261000   197.38405      24880.534    
    262000   200.15119      24768.686    
    263000   202.78711      24904.874    
    264000   196.10147      24956.254    
    265000   199.9025       24789.939    
    266000   196.33388      24833.721    
    267000   195.58109      24987.787    
    268000   200.67842      24843.412    
    269000   205.98389      24793.803    
    270000   202.68098      24924.808    
    271000   205.90143      24884.69     
    272000   200.60487      24799.861    
    273000   200.87082      24868.383    
    274000   194.07455      24943.124    
    275000   200.73832      24774.68     
    276000   202.01861      24823.746    
    277000   192.78685      24992.922    
    278000   197.6689       24821.6      
    279000   199.18875      24767.655    
    280000   197.74467      24951.355    
    281000   204.61001      24881.185    
    282000   192.00726      24801.961    
    283000   198.28982      24945.159    
    284000   192.26369      24850.694    
    285000   201.29497      24820.49     
    286000   195.78564      24974.874    
    287000   197.5884       24886.089    
    288000   202.93434      24793.89     
    289000   204.41755      24850.072    
    290000   200.67907      25019.931    
    291000   206.35975      24871.189    
    292000   194.72676      24729.465    
    293000   207.90724      24943.352    
    294000   198.82425      24995.101    
    295000   202.35526      24717.24     
    296000   188.58234      24901.874    
    297000   199.47815      24947.269    
    298000   193.99246      24799.336    
    299000   206.70422      24792.457    
    300000   195.0715       24955.603    
    301000   200.07643      24853.822    
    302000   195.75544      24782.531    
    303000   192.05779      24916.13     
    304000   199.49759      24953.223    
    305000   199.02511      24816.81     
    306000   197.68473      24832.318    
    307000   196.73906      24914.372    
    308000   199.41019      24882.769    
    309000   202.08908      24823.259    
    310000   198.90625      24942.111    
    311000   199.11497      24837.038    
    312000   198.72343      24843.912    
    313000   201.24539      24919.498    
    314000   200.1605       24844.553    
    315000   195.43471      24822.897    
    316000   203.11696      24902.827    
    317000   195.87408      24930.778    
    318000   200.10139      24843.722    
    319000   196.74854      24875.173    
    320000   197.87057      24901.394    
    321000   198.54707      24793.886    
    322000   195.13408      24867.832    
    323000   193.92127      24911.806    
    324000   199.97651      24862.589    
    325000   195.72039      24846.073    
    326000   199.98443      24902.835    
    327000   199.63898      24902.936    
    328000   199.87089      24827.09     
    329000   203.38732      24861.916    
    330000   196.65249      24907.788    
    331000   198.41456      24856.726    
    332000   200.10729      24856.586    
    333000   198.61565      24919.947    
    334000   196.68839      24880.4      
    335000   202.05011      24832.937    
    336000   198.72782      24949.563    
    337000   200.4431       24891.37     
    338000   203.98757      24828.146    
    339000   197.24069      24919.942    
    340000   198.9976       24874.275    
    341000   199.09622      24813.405    
    342000   206.07058      24883.812    
    343000   198.24514      24916.801    
    344000   205.57926      24831.1      
    345000   196.22166      24854.653    
    346000   201.69954      24912.099    
    347000   197.49152      24860.821    
    348000   200.10039      24868.424    
    349000   194.12969      24886.954    
    350000   198.93774      24842.249    
    351000   204.7318       24810.622    
    352000   196.62462      24886.221    
    353000   204.14734      24937.28     
    354000   205.47349      24839.949    
    355000   196.23488      24802.942    
    356000   203.77191      24947.564    
    357000   196.76301      24936.551    
    358000   203.06923      24782.038    
    359000   201.44636      24860.35     
    360000   198.70291      24923.045    
    361000   201.75731      24851.665    
    362000   200.1166       24911.986    
    363000   195.2397       24844.595    
    364000   203.5164       24845.912    
    365000   194.97057      24927.53     
    366000   213.91603      24871.959    
    367000   199.21795      24827.967    
    368000   193.45698      24868.427    
    369000   200.88638      24886.535    
    370000   201.1705       24805.991    
    371000   200.11642      24926.506    
    372000   202.87557      24824.006    
    373000   201.44123      24870.967    
    374000   201.63845      24913.103    
    375000   201.6952       24830.788    
    376000   194.69158      24884.756    
    377000   205.19803      24875.778    
    378000   203.93737      24860.2      
    379000   206.54886      24904.649    
    380000   196.48703      24810.318    
    381000   200.66538      24871.017    
    382000   200.6886       24923.337    
    383000   196.45767      24870.982    
    384000   201.14926      24834.073    
    385000   201.66502      24844.667    
    386000   204.8221       24907.815    
    387000   199.06015      24915.032    
    388000   204.69028      24841.885    
    389000   195.56381      24841.713    
    390000   199.70983      24918.755    
    391000   210.76786      24935.584    
    392000   199.8321       24839.533    
    393000   194.70046      24824.936    
    394000   197.06205      24925.662    
    395000   196.65187      24822.288    
    396000   199.23179      24839.275    
    397000   193.95623      24959.327    
    398000   197.75786      24825.635    
    399000   198.96353      24807.641    
    400000   196.66614      24961.125    
    401000   210.02032      24873.379    
    402000   199.51136      24783.072    
    403000   202.42424      24867.139    
    404000   201.64408      24924.732    
    405000   198.07059      24856.017    
    406000   201.84449      24907.702    
    407000   203.49956      24865.971    
    408000   196.41654      24843.804    
    409000   198.01723      24918.368    
    410000   191.3141       24899.64     
    411000   202.00654      24768.916    
    412000   201.42859      24901.899    
    413000   199.87784      24958.411    
    414000   199.35747      24828.743    
    415000   201.21286      24776.018    
    416000   203.04948      24997.767    
    417000   204.12991      24824.448    
    418000   191.47516      24802.813    
    419000   201.83036      24969.1      
    420000   207.21729      24881.069    
    421000   198.35402      24791.368    
    422000   200.45999      24927.478    
    423000   192.54183      24923.7      
    424000   206.13304      24850.344    
    425000   202.49948      24853.657    
    426000   196.16861      24909.298    
    427000   200.52099      24924.149    
    428000   205.45611      24812.126    
    429000   192.34027      24817.962    
    430000   199.18371      24972.254    
    431000   196.82602      24857.203    
    432000   204.51958      24791.009    
    433000   200.3595       24955.162    
    434000   201.13308      24914.586    
    435000   196.81187      24758.766    
    436000   197.53969      24905.737    
    437000   198.36774      24963.529    
    438000   197.45751      24759.522    
    439000   207.47816      24863.744    
    440000   194.64256      24961.378    
    441000   195.4639       24788.852    
    442000   204.50154      24855.236    
    443000   193.4938       24927.1      
    444000   199.68087      24860.862    
    445000   205.76086      24876.759    
    446000   200.53142      24892.238    
    447000   208.06023      24876.528    
    448000   198.17248      24836.637    
    449000   197.62626      24874.106    
    450000   200.214        24991.991    
    451000   199.92228      24781.665    
    452000   199.08323      24882.443    
    453000   198.99677      24981.329    
    454000   204.52834      24798.204    
    455000   203.48446      24825.576    
    456000   205.60992      25026.167    
    457000   198.73385      24821.659    
    458000   194.47975      24812.76     
    459000   206.14306      24960.224    
    460000   198.3981       24894.58     
    461000   205.78775      24806.389    
    462000   200.82217      24934.876    
    463000   202.24086      24877.543    
    464000   198.58082      24765.882    
    465000   205.83451      24894.596    
    466000   195.38465      24971.023    
    467000   198.04575      24818.063    
    468000   198.69426      24832.797    
    469000   204.19786      24886.051    
    470000   194.73779      24853.736    
    471000   204.00474      24917.847    
    472000   196.97667      24854.371    
    473000   195.07826      24854.472    
    474000   203.37082      24900.672    
    475000   196.20716      24903.079    
    476000   202.75204      24847.148    
    477000   195.92645      24813.186    
    478000   204.56486      24906.247    
    479000   198.83562      24902.165    
    480000   195.7989       24804.826    
    481000   200.9333       24873.074    
[...]
Comm    | 172.64     | 200.49     | 226.37     | 116.3 | 53.13
Output  | 0.0059149  | 0.0073934  | 0.041444   |   7.1 |  0.00
Modify  | 13.92      | 16.382     | 19.213     |  46.3 |  4.34
Other   |            | 2.75       |            |       |  0.73

Nlocal:          60.75 ave          72 max          51 min
Histogram: 6 2 2 4 5 4 1 0 2 6
Nghost:           4716 ave        4746 max        4675 min
Histogram: 2 4 3 5 0 2 0 2 6 8
Neighs:        30031.8 ave       35710 max       25097 min
Histogram: 5 3 1 4 6 4 1 1 3 4

Total # of neighbors = 961017
Ave neighs/atom = 494.35031
Ave special neighs/atom = 8.8148148
Neighbor list builds = 11250
Dangerous builds = 0

reset_timestep  0
#############################  Production ###################################
variable        V       equal vol 		    #Volume variable
variable        a	 	equal cella 		#Lattice variable
variable        b	 	equal cellb 		#Lattice variable
variable        c	 	equal cellc 		#Lattice variable
fix 			4 all ave/time 1 ${d3} ${d3} v_V v_a v_b v_c ave running file results_${t}.txt overwrite
fix 			4 all ave/time 1 400000 ${d3} v_V v_a v_b v_c ave running file results_${t}.txt overwrite
fix 			4 all ave/time 1 400000 400000 v_V v_a v_b v_c ave running file results_${t}.txt overwrite
fix 			4 all ave/time 1 400000 400000 v_V v_a v_b v_c ave running file results_500.txt overwrite
fix 			5 all ave/time 1 10000 10000 v_V v_a v_b v_c file summary_${t}.txt
fix 			5 all ave/time 1 10000 10000 v_V v_a v_b v_c file summary_500.txt
thermo          1000
run             ${d3}
run             400000
Generated 6 of 6 mixed pair_coeff terms from arithmetic mixing rule
WARNING: Inconsistent image flags (../domain.cpp:815)
Per MPI rank memory allocation (min/avg/max) = 15.25 | 15.33 | 15.46 Mbytes
   Step          Temp          Volume    
         0   512.67155      24921.761    
      1000   486.44476      24890.312    
      2000   491.5432       24682.756    
      3000   510.31538      24807.182    
      4000   489.91811      24897.417    
      5000   510.8497       25055.118    
      6000   506.517        24943.932    
      7000   504.9162       24844.028    
      8000   483.4602       24834.846    
      9000   504.883        24742.645    
     10000   500.26212      24794.82     
     11000   511.23979      24932.847    
     12000   495.37355      24882.691    
     13000   505.03289      24866.767    
     14000   502.98167      24883.621    
     15000   507.35418      24808.314    
     16000   511.15666      24812.843    
     17000   506.1744       24949.688    
     18000   510.70448      24954.913    
     19000   502.45067      24867.441    
     20000   500.72543      24900.972    
     21000   490.6281       24942.877    
     22000   501.61982      25076.321    
     23000   511.21054      24866.506    
     24000   488.08135      24774.416    
     25000   520.48744      24810.413    
     26000   503.27425      24909.671    
     27000   484.23655      24924.694    
     28000   491.95329      25015.493    
     29000   491.42293      24861.746    
     30000   493.80922      24819.385    
     31000   485.51411      24796.556    
     32000   501.8681       24723.361    
     33000   496.26579      24883.668    
     34000   497.68881      24949.071    
     35000   519.22708      24811.709    
     36000   499.13756      24906.174    
     37000   502.60224      24845.297    
     38000   523.9912       24781.844    
     39000   501.38358      24850.828    
     40000   496.36927      24868.675    
     41000   504.19214      24890.65     
     42000   504.66158      24946.384    
     43000   498.72396      24849.265    
     44000   488.65802      24829.513    
     45000   505.05808      24924.49     
     46000   501.17238      24947.249    
     47000   487.31241      24982.026    
     48000   499.46747      24929.694    
     49000   496.29855      24881.987    
     50000   510.91332      24888.256    
     51000   496.41264      24855.849    
     52000   504.89711      24738.054    
     53000   494.05827      24895.433    
     54000   501.04481      24946.362    
     55000   501.4602       24971.691    
     56000   489.75386      24939.193    
     57000   500.20437      24877.485    
     58000   497.00598      24868.541    
     59000   499.46609      24863.258    
     60000   511.70601      24876.277    
     61000   486.20673      24906.992    
     62000   489.46282      24765.322    
     63000   491.88932      24808.805    
     64000   496.95776      24864.741    
     65000   497.44024      24929.775    
     66000   482.07327      24893.781    
     67000   502.59016      24905.058    
     68000   505.69728      24835.132    
     69000   496.1437       24926.72     
     70000   495.56178      24856.08     
     71000   505.93904      24879.714    
     72000   493.18625      25022.406    
     73000   512.81376      24779.404    
     74000   500.14544      24813.457    
     75000   509.02246      24961.459    
     76000   507.87557      24913.634    
     77000   497.22415      24918.433    
     78000   491.7847       24896.703    
     79000   490.61744      24749.41     
     80000   491.27367      24823.867    
     81000   486.56388      24803.686    
     82000   498.32033      24822.726    
     83000   497.63222      24946.142    
     84000   489.60242      24940.057    
     85000   489.1701       24829.608    
     86000   515.60898      24861.998    
     87000   504.10524      24784.645    
     88000   506.55152      24800.518    
     89000   487.52552      25006.214    
     90000   502.35467      24874.764    
     91000   490.81005      24740.706    
     92000   504.33093      24804.542    
     93000   490.47697      24779.806    
     94000   490.3291       24940.202    
     95000   496.67538      24903.024    
     96000   502.06957      24850.465    
     97000   510.16931      24995.668    
     98000   488.71112      24924.761    
     99000   509.35238      24819.836    
    100000   510.28336      24965.589    
    101000   486.08514      24913.736    
    102000   505.0391       24911.601    
    103000   480.98824      25005.477    
    104000   486.16054      24823.391    
    105000   517.25114      24806.829    
    106000   500.51784      24747.736    
    107000   497.56579      24808.636    
    108000   497.89334      24922.601    
    109000   495.08782      24943.812    
    110000   506.20459      24959.422    
    111000   501.181        24852.141    
    112000   492.04195      24831.01     
    113000   500.98715      24768.088    
    114000   510.51283      24841.71     
    115000   496.50106      24860.198    
    116000   497.96172      24767.762    
    117000   498.42611      24819.691    
    118000   502.04674      24886.484    
    119000   514.22097      24804.337    
    120000   499.83292      24837.037    
    121000   503.84952      24971.597    
    122000   494.27451      24897.422    
    123000   503.63764      24883.672    
    124000   517.37015      24911.348    
    125000   490.68623      24824.083    
    126000   506.73253      24831.219    
    127000   499.49021      24868.888    
    128000   506.53963      24845.373    
    129000   497.83565      24896.722    
    130000   488.88353      24868.892    
    131000   496.34883      24867.362    
    132000   503.84057      24959.62     
    133000   512.82952      24822.71     
    134000   488.65222      24833.811    
    135000   493.83968      24755.145    
    136000   503.11193      24784.476    
    137000   502.14444      24959.263    
    138000   500.52158      24991.553    
    139000   492.84968      24934.248    
    140000   508.71148      24853.66     
    141000   492.51683      24714.377    
    142000   485.46713      24808.277    
    143000   504.91527      24925.471    
    144000   496.69059      24854.834    
    145000   506.28259      24899.686    
    146000   496.09607      24806.883    
    147000   503.16334      24823.993    
    148000   494.6648       24847.565    
    149000   493.85026      24891.924    
    150000   489.74048      25026.262    
    151000   493.14015      24880.701    
    152000   509.99989      24759.075    
    153000   504.31548      24714.254    
    154000   502.05332      24885.432    
    155000   507.30752      24889.768    
    156000   494.24559      25032.142    
    157000   496.78943      25030.267    
    158000   496.35665      24903.242    
    159000   489.04838      24771.908    
    160000   500.52682      24774.912    
    161000   500.80568      24826.603    
    162000   499.54548      24820.267    
    163000   493.04025      24972.605    
    164000   491.60219      24893.928    
    165000   506.45133      24900.149    
    166000   489.29802      24802.534    
    167000   494.86669      24740.897    
    168000   495.0937       24877.014    
    169000   496.32489      24893.764    
    170000   507.11406      24943.675    
    171000   493.5453       24994.409    
    172000   531.16128      24812.268    
    173000   487.28212      24811.587    
    174000   505.95939      24949.589    
    175000   491.35372      24995.122    
    176000   499.72154      25024.109    
    177000   486.17433      24923.816    
    178000   504.51145      24788.728    
    179000   502.09812      24847.913    
    180000   494.77491      24826.222    
    181000   502.31352      24943.683    
    182000   511.45942      25003.113    
    183000   496.3813       24863.607    
    184000   504.18222      24823.505    
    185000   488.99099      24879.135    
    186000   509.34974      24847.62     
    187000   498.00809      24869.008    
    188000   502.28013      24925.201    
    189000   505.65645      24935.307    
    190000   516.67849      24882.035    
    191000   490.5416       24880.294    
    192000   503.76111      24878.498    
    193000   499.78884      24902.446    
    194000   489.17272      24847.784    
    195000   518.15988      24840.13     
    196000   485.38398      24848.901    
    197000   493.80257      24956.271    
    198000   502.07583      24796.665    
    199000   492.01703      24852.329    
    200000   503.47305      24859.085    
    201000   495.8009       24797.404    
    202000   508.5173       24814.45     
    203000   509.07363      24892.933    
    204000   490.65717      24805.783    
    205000   496.34464      24861.466    
    206000   504.93028      24884.615    
    207000   501.03556      24844.763    
    208000   498.8867       24755.75     
    209000   503.12709      24892.477    
    210000   518.09668      24916.418    
    211000   493.9611       24815.561    
    212000   499.98302      24835.006    
    213000   493.41872      24907.322    
    214000   514.80644      24858.753    
    215000   516.22084      24950.907    
    216000   514.7761       25007.922    
    217000   510.60584      24917.641    
    218000   486.67794      24844.778    
    219000   501.92136      24736.135    
    220000   503.58509      24837.614    
    221000   512.93682      24819.774    
    222000   495.4382       24878.343    
    223000   507.16872      24889.546    
    224000   505.75772      24956.198    
    225000   492.86731      24926.386    
    226000   508.67984      24806.297    
    227000   517.36348      24767.456    
    228000   491.07323      24931.172    
    229000   509.6616       24873.223    
    230000   490.20087      24817.092    
    231000   489.49192      24913.942    
    232000   506.3047       24812.867    
    233000   498.32788      24742.682    
    234000   504.87727      24849.225    
    235000   506.43723      24912.308    
    236000   492.48313      24932.693    
    237000   515.31815      24939.97     
    238000   484.40979      24912.505    
    239000   504.31075      24825.775    
    240000   495.04575      24875.121    
    241000   500.21921      24903.838    
    242000   526.33575      24907.596    
    243000   493.79152      24734.154    
    244000   496.90904      24811.392    
    245000   492.39525      24923.183    
    246000   491.88591      24929.958    
    247000   504.92058      24990.864    
    248000   515.83013      24901.837    
    249000   504.86404      24722.254    
    250000   487.63081      24674.069    
    251000   512.43872      24823.997    
    252000   496.74738      24994.599    
    253000   495.32937      24961.188    
    254000   494.80473      24905.991    
    255000   503.827        24773.569    
    256000   493.45887      24777.744    
    257000   500.41037      24842.469    
    258000   485.70507      25036.551    
    259000   491.75513      24918.568    
    260000   483.45714      24986.721    
    261000   493.7112       24835.674    
    262000   496.6474       24786.55     
    263000   492.81555      24865.373    
    264000   511.83824      24878.14     
    265000   494.71644      24863.951    
    266000   486.66814      24890.5      
    267000   496.98307      24809.978    
    268000   492.83781      24895.709    
    269000   494.03412      24987.369    
    270000   493.96858      24890.756    
    271000   489.31998      24879.506    
    272000   503.35977      24761.206    
    273000   485.35352      24783.596    
    274000   505.28989      24800.502    
    275000   516.96867      24784.351    
    276000   507.55148      24822.654    
    277000   492.35384      24934.226    
    278000   495.79491      24869.402    
    279000   508.60522      24939.158    
    280000   509.43152      24934.396    
    281000   500.42664      24922.409    
    282000   513.92826      24785.036    
    283000   509.78419      24888.057    
    284000   487.33903      24837.99     
    285000   504.59708      24755.121    
    286000   486.2951       24759.463    
    287000   502.3277       24897.349    
    288000   506.68063      24869.432    
    289000   485.80298      24892.087    
    290000   506.83119      24869.185    
    291000   502.73126      24881.031    
    292000   502.91527      24730.305    
    293000   487.86454      24851.725    
    294000   505.40998      24969.278    
    295000   499.45803      24849.713    
    296000   500.59884      24888.655    
    297000   489.73303      24878.316    
    298000   511.85528      24875.848    
    299000   512.60183      24898.58     
    300000   511.64687      24892.802    
    301000   495.02316      24794.225    
    302000   490.24532      24892.269    
    303000   498.24453      24878.776    
    304000   499.17677      24828.578    
    305000   491.26915      24807.376    
    306000   503.71838      24834.738    
    307000   496.15352      24840.076    
    308000   508.43954      24865.725    
    309000   498.82404      25031.902    
    310000   512.70331      24855.37     
    311000   501.30752      24881.961    
    312000   489.93941      24827.752    
    313000   488.01918      24829.43     
    314000   502.21244      24945.039    
    315000   486.7391       24944.968    
    316000   510.87919      24828.455    
    317000   511.73752      24906.06     
    318000   509.81904      24918.434    
    319000   499.97223      24887.422    
    320000   498.44391      25001.852    
    321000   503.90852      24818.091    
    322000   503.04385      24703.629    
    323000   512.22981      24820.424    
    324000   492.27551      24966.593    
    325000   491.6925       24969.909    
    326000   503.91548      24935.896    
    327000   501.17004      24849.617    
    328000   495.25734      24849.818    
    329000   507.18451      24851.277    
    330000   481.97703      24857.204    
    331000   499.57497      24951.547    
    332000   495.5412       24997.545    
    333000   504.73801      24894.126    
    334000   505.88682      24696.969    
    335000   503.39347      24826.86     
    336000   485.24159      24806.266    
    337000   505.68411      24920.526    
    338000   502.25797      24940.085    
    339000   514.27986      24811.769    
    340000   501.29194      24932.721    
    341000   492.02932      24899.207    
    342000   503.69268      24717.399    
    343000   516.41852      24826.66     
    344000   493.80863      24824.913    
    345000   520.84807      24881.162    
    346000   487.0467       24914.149    
    347000   486.47327      25008.437    
    348000   510.75957      24882.419    
    349000   488.36659      24784.04     
    350000   494.70383      24821.757    
    351000   503.4595       24901.826    
    352000   502.47837      24984.181    
    353000   504.34661      24942.974    
    354000   499.78493      24883.488    
    355000   490.62617      24921.788    
    356000   496.14234      24988.441    
    357000   499.91017      24877.589    
    358000   490.25319      24811.062    
    359000   491.13631      24729.136    
    360000   503.49166      24825.548    
    361000   506.81944      24908.424    
    362000   487.90784      25057.915    
    363000   499.11216      24884.342    
    364000   491.40133      24859.117    
    365000   505.65926      24772.132    
    366000   497.26397      24877.988    
    367000   493.30114      24996.036    
    368000   504.77009      25040.572    
    369000   502.6127       24933.458    
    370000   491.19917      24710.988    
    371000   504.67219      24628.865    
    372000   500.4112       24962.878    
    373000   507.38728      24961.436    
    374000   488.7356       24965.22     
    375000   502.1108       24863.32     
    376000   499.50185      24658.895    
    377000   502.2509       24776.092    
    378000   493.4912       24865.087    
    379000   515.93719      25022.769    
    380000   492.37945      24996.424    
    381000   510.14687      24947.971    
    382000   496.56205      24816.817    
    383000   502.98045      24842.519    
    384000   488.67767      24820.712    
    385000   513.08089      24822.377    
    386000   488.82395      25065.41     
    387000   489.38798      24986.737    
    388000   498.63339      24889.57     
    389000   501.64275      24780.966    
    390000   493.14004      24828.63     
    391000   511.41697      24879.709    
    392000   505.53873      24938.341    
    393000   498.90767      24976.781    
    394000   504.13817      24957.64     
    395000   489.40036      24770.32     
    396000   525.65438      24654.648    
    397000   493.65694      24807.037    
    398000   486.96509      24843.639    
    399000   509.50035      24984.467    
    400000   491.40085      24878.692    
Loop time of 382.877 on 32 procs for 400000 steps with 1944 atoms

Performance: 90.264 ns/day, 0.266 hours/ns, 1044.721 timesteps/s, 2.031 Matom-step/s
99.6% CPU use with 32 MPI tasks x no OpenMP threads

MPI task timing breakdown:
Section |  min time  |  avg time  |  max time  |%varavg| %total
---------------------------------------------------------------
Pair    | 110.29     | 133.47     | 158.51     | 132.0 | 34.86
Bond    | 6.3888     | 7.9606     | 9.4581     |  38.4 |  2.08
Neigh   | 16.153     | 16.619     | 17.42      |   8.7 |  4.34
Comm    | 173.62     | 201.94     | 228.14     | 117.0 | 52.74
Output  | 0.0070429  | 0.0086683  | 0.041647   |   6.4 |  0.00
Modify  | 16.472     | 20.038     | 24.246     |  61.5 |  5.23
Other   |            | 2.84       |            |       |  0.74

Nlocal:          60.75 ave          70 max          53 min
Histogram: 5 6 2 1 3 5 2 1 3 4
Nghost:        4730.12 ave        4769 max        4691 min
Histogram: 2 3 5 6 0 2 3 3 7 1
Neighs:        30047.1 ave       34751 max       26320 min
Histogram: 5 6 2 2 2 5 3 0 3 4

Total # of neighbors = 961507
Ave neighs/atom = 494.60237
Ave special neighs/atom = 8.8148148
Neighbor list builds = 11220
Dangerous builds = 0

unfix           1

print "All done!"
All done!
clear
next t
jump in.ITIPAE_clean
Total wall time: 1:13:29
