Created on Fri Sep 08 17:33:19 2023 

        1944 atoms
        2592 bonds
        6264 angles
        2592 dihedrals
        2592 impropers

           4 atom types
           3 bond types
           5 angle types
           2 dihedral types
           1 improper types
           0.000000  34.254000 xlo xhi
           0.000000  30.111000 ylo yhi
           0.000000  29.747198 zlo zhi
           0.000000 -22.156730   0.000000 xy xz yz

Masses

    1    65.380000000 # Zn3+2
    2    15.999400000 # O_R
    3    12.010700000 # C_R
    4     1.007940000 # H_

Bond Coeffs

    1      160.291409        1.840266  # O_R Zn3+2
    2      646.680887        1.311940  # C_R O_R
    3      357.440381        1.081418  # H_ C_R

Angle Coeffs

    1                      fourier      172.607259        0.343737        0.374972        0.281246 # O_R Zn3+2 O_R
    2              cosine/periodic       60.877639              -1               3 # Zn3+2 O_R C_R
    3              cosine/periodic       27.550425              -1               3 # Zn3+2 O_R Zn3+2
    4              cosine/periodic      187.136328              -1               3 # O_R C_R O_R
    5              cosine/periodic       75.419341              -1               3 # O_R C_R H_

Dihedral Coeffs

    1        6.737110              -1               2 # O_R C_R O_R Zn3+2
    2        3.368555              -1               2 # O_R C_R O_R Zn3+2

Improper Coeffs

    1        2.000000        1.000000       -1.000000        0.000000               0 # Zn3+2 O_R C_R Zn3+2

Pair Coeffs

    1        0.124000        2.461553 # Zn3+2 Zn3+2
    2        0.060000        3.118146 # O_R O_R
    3        0.105000        3.430851 # C_R C_R
    4        0.044000        2.571134 # H_ H_

Atoms

       1      444        1     0.00000    2.98436    8.81479   10.33224
       2      444        1     0.00000    3.01213    5.73193    9.39833
       3      444        2     0.00000    1.39828    8.66394    9.04196
       4      444        2     0.00000    1.31518    6.49414    8.47289
       5      444        2     0.00000    2.50936    6.89452   11.14657
       6      444        2     0.00000   -8.90976    5.47418   12.87265
       7      444        2     0.00000    4.13621    7.50637    9.13715
       8      444        2     0.00000    5.66114    7.07609    7.54969
       9      444        2     0.00000    3.76243    4.75653    7.76417
      10      444        2     0.00000    1.88656    4.06398    6.77373
      11      444        2     0.00000    1.95948    4.12511   10.29208
      12      444        2     0.00000    0.12734    3.74581    9.08197
      13      444        2     0.00000   -6.94353    4.81575   10.60993
      14      444        2     0.00000   -5.04732    4.89304    9.46065
      15      444        3     0.00000    0.89324    7.68935    8.46605
      16      444        4     0.00000    0.12156    7.85195    7.97374
      17      444        3     0.00000   -9.07239    6.59029   12.36591
      18      444        4     0.00000   -9.34141    7.27381   12.93557
      19      444        3     0.00000    5.04106    7.83689    8.30096
      20      444        4     0.00000    5.25577    8.74022    8.25336
      21      444        3     0.00000    3.10364    4.07803    6.91027
      22      444        4     0.00000    3.59628    3.53905    6.33318
      23      444        3     0.00000    0.88081    3.51897   10.02183
      24      444        4     0.00000    0.63474    2.83043   10.59595
      25      444        3     0.00000   -5.69355    4.71739   10.47696
      26      444        4     0.00000   -5.21259    4.48453   11.23849
      27      444        1     0.00000   -8.18391    3.79629   11.97816
      28      444        1     0.00000   -8.21168    0.71343   12.91207
      29      444        2     0.00000   -6.59783    3.64544   13.26844
      30      444        2     0.00000   -6.51473    1.47564   13.83750
      31      444        2     0.00000   -7.70890    1.87602   11.16383
      32      444        2     0.00000    3.71022    0.45568    9.43774
      33      444        2     0.00000   -9.33576    2.48787   13.17325
      34      444        2     0.00000  -10.86069    2.05759   14.76071
      35      444        2     0.00000   -8.96198    9.77503   14.54623
      36      444        2     0.00000    3.99226    9.08248    0.66307
      37      444        2     0.00000   -7.15903    9.14361   12.01831
      38      444        2     0.00000   -5.32689    8.76431   13.22843
      39      444        2     0.00000    1.74398    9.83425   11.70047
      40      444        2     0.00000   -0.15222    9.91154   12.84975
      41      444        3     0.00000   -6.09279    2.67085   13.84435
      42      444        4     0.00000   -5.32111    2.83345   14.33666
      43      444        3     0.00000    3.87285    1.57179    9.94449
      44      444        4     0.00000    4.14186    2.25531    9.37483
      45      444        3     0.00000  -10.24061    2.81839   14.00944
      46      444        4     0.00000  -10.45532    3.72172   14.05704
      47      444        3     0.00000    2.77518    9.09653    0.52653
      48      444        4     0.00000    2.28254    8.55755    1.10362
      49      444        3     0.00000   -6.08036    8.53747   12.28857
      50      444        4     0.00000   -5.83428    7.84893   11.71445
      51      444        3     0.00000    0.49401    9.73589   11.83344
      52      444        4     0.00000    0.01305    9.50303   11.07191
      53      444        1     0.00000   -2.64473    1.22221    4.54136
      54      444        1     0.00000   -2.67250    4.30507    5.47527
      55      444        2     0.00000   -1.05865    1.37306    5.83164
      56      444        2     0.00000   -0.97555    3.54286    6.40070
      57      444        2     0.00000   -2.16972    3.14248    3.72703
      58      444        2     0.00000    9.24940    4.56282    2.00095
      59      444        2     0.00000   -3.79657    2.53063    5.73645
      60      444        2     0.00000   -5.32151    2.96092    7.32391
      61      444        2     0.00000   -3.42280    5.28047    7.10943
      62      444        2     0.00000   -1.54692    5.97302    8.09986
      63      444        2     0.00000   -1.61984    5.91189    4.58151
      64      444        2     0.00000    0.21229    6.29119    5.79163
      65      444        2     0.00000    7.28316    5.22125    4.26367
      66      444        2     0.00000    5.38696    5.14396    5.41295
      67      444        3     0.00000   -0.55361    2.34765    6.40755
      68      444        4     0.00000    0.21807    2.18505    6.89986
      69      444        3     0.00000    9.41203    3.44671    2.50769
      70      444        4     0.00000    9.68105    2.76319    1.93803
      71      444        3     0.00000   -4.70142    2.20011    6.57264
      72      444        4     0.00000   -4.91614    1.29678    6.62024
      73      444        3     0.00000   -2.76400    5.95897    7.96332
      74      444        4     0.00000   -3.25664    6.49795    8.54042
      75      444        3     0.00000   -0.54118    6.51803    4.85177
      76      444        4     0.00000   -0.29510    7.20657    4.27765
      77      444        3     0.00000    6.03319    5.31961    4.39664
      78      444        4     0.00000    5.55223    5.55247    3.63511
      79      444        1     0.00000    8.52354    6.24071    2.89544
      80      444        1     0.00000    8.55132    9.32357    1.96153
      81      444        2     0.00000    6.93746    6.39156    1.60516
      82      444        2     0.00000    6.85436    8.56136    1.03609
      83      444        2     0.00000    8.04854    8.16098    3.70977
      84      444        2     0.00000   -3.37058    9.58132    5.43585
      85      444        2     0.00000    9.67539    7.54913    1.70035
      86      444        2     0.00000   11.20032    7.97942    0.11289
      87      444        2     0.00000    9.30161    0.26197    0.32737
      88      444        2     0.00000   -3.65262    0.95452   14.21053
      89      444        2     0.00000    7.49866    0.89339    2.85528
      90      444        2     0.00000    5.66653    1.27269    1.64517
      91      444        2     0.00000   -1.40435    0.20275    3.17313
      92      444        2     0.00000    0.49186    0.12546    2.02385
      93      444        3     0.00000    6.43243    7.36615    1.02925
      94      444        4     0.00000    5.66075    7.20355    0.53694
      95      444        3     0.00000   -3.53321    8.46521    4.92911
      96      444        4     0.00000   -3.80223    7.78169    5.49877
      97      444        3     0.00000   10.58024    7.21861    0.86416
      98      444        4     0.00000   10.79495    6.31528    0.81656
      99      444        3     0.00000   -2.43554    0.94047   14.34707
     100      444        4     0.00000   -1.94290    1.47945   13.76998
     101      444        3     0.00000    6.42000    1.49953    2.58503
     102      444        4     0.00000    6.17392    2.18807    3.15915
     103      444        3     0.00000   -0.15437    0.30111    3.04016
     104      444        4     0.00000    0.32659    0.53397    3.80169
     105      444        1     0.00000   -5.53918    5.01850    7.43680
     106      444        1     0.00000    0.00000    0.00000    0.00000
     107      444        1     0.00000    0.16982    5.01850    7.43680
     108      444        1     0.00000    5.70900    0.00000    0.00000
     109      444        1     0.00000   -8.09400    8.81479   25.20584
     110      444        1     0.00000   -8.06623    5.73193   24.27193
     111      444        2     0.00000   -9.68008    8.66394   23.91556
     112      444        2     0.00000   -9.76318    6.49414   23.34649
     113      444        2     0.00000   -8.56901    6.89452   26.02017
     114      444        2     0.00000  -19.98813    5.47418   27.74625
     115      444        2     0.00000   -6.94216    7.50637   24.01075
     116      444        2     0.00000   -5.41722    7.07609   22.42329
     117      444        2     0.00000   -7.31593    4.75653   22.63777
     118      444        2     0.00000   -9.19181    4.06398   21.64733
     119      444        2     0.00000   -9.11889    4.12511   25.16568
     120      444        2     0.00000  -10.95102    3.74581   23.95557
     121      444        2     0.00000  -18.02189    4.81575   25.48353
     122      444        2     0.00000  -16.12569    4.89304   24.33425
     123      444        3     0.00000  -10.18512    7.68935   23.33965
     124      444        4     0.00000  -10.95680    7.85195   22.84734
     125      444        3     0.00000  -20.15076    6.59029   27.23951
     126      444        4     0.00000  -20.41978    7.27381   27.80917
     127      444        3     0.00000   -6.03731    7.83689   23.17455
     128      444        4     0.00000   -5.82259    8.74022   23.12696
     129      444        3     0.00000   -7.97473    4.07803   21.78387
     130      444        4     0.00000   -7.48209    3.53905   21.20678
     131      444        3     0.00000  -10.19755    3.51897   24.89543
     132      444        4     0.00000  -10.44363    2.83043   25.46955
     133      444        3     0.00000  -16.77192    4.71739   25.35056
     134      444        4     0.00000  -16.29096    4.48453   26.11209
     135      444        1     0.00000  -19.26227    3.79629   26.85175
     136      444        1     0.00000  -19.29004    0.71343   27.78567
     137      444        2     0.00000  -17.67619    3.64544   28.14204
     138      444        2     0.00000  -17.59309    1.47564   28.71110
     139      444        2     0.00000  -18.78727    1.87602   26.03743
     140      444        2     0.00000   -7.36815    0.45568   24.31134
     141      444        2     0.00000  -20.41412    2.48787   28.04685
     142      444        2     0.00000  -21.93905    2.05759   29.63431
     143      444        2     0.00000  -20.04034    9.77503   29.41983
     144      444        2     0.00000   -7.08611    9.08248   15.53666
     145      444        2     0.00000  -18.23739    9.14361   26.89191
     146      444        2     0.00000  -16.40526    8.76431   28.10203
     147      444        2     0.00000   -9.33438    9.83425   26.57406
     148      444        2     0.00000  -11.23059    9.91154   27.72335
     149      444        3     0.00000  -17.17116    2.67085   28.71795
     150      444        4     0.00000  -16.39948    2.83345   29.21026
     151      444        3     0.00000   -7.20552    1.57179   24.81809
     152      444        4     0.00000   -6.93650    2.25531   24.24843
     153      444        3     0.00000  -21.31897    2.81839   28.88304
     154      444        4     0.00000  -21.53368    3.72172   28.93064
     155      444        3     0.00000   -8.30319    9.09653   15.40012
     156      444        4     0.00000   -8.79583    8.55755   15.97722
     157      444        3     0.00000  -17.15873    8.53747   27.16217
     158      444        4     0.00000  -16.91265    7.84893   26.58805
     159      444        3     0.00000  -10.58436    9.73589   26.70703
     160      444        4     0.00000  -11.06532    9.50303   25.94551
     161      444        1     0.00000  -13.72309    1.22221   19.41496
     162      444        1     0.00000  -13.75086    4.30507   20.34887
     163      444        2     0.00000  -12.13701    1.37306   20.70524
     164      444        2     0.00000  -12.05391    3.54286   21.27430
     165      444        2     0.00000  -13.24809    3.14248   18.60063
     166      444        2     0.00000   -1.82897    4.56282   16.87454
     167      444        2     0.00000  -14.87494    2.53063   20.61005
     168      444        2     0.00000  -16.39987    2.96092   22.19751
     169      444        2     0.00000  -14.50116    5.28047   21.98303
     170      444        2     0.00000  -12.62529    5.97302   22.97346
     171      444        2     0.00000  -12.69821    5.91189   19.45511
     172      444        2     0.00000  -10.86607    6.29119   20.66523
     173      444        2     0.00000   -3.79520    5.22125   19.13726
     174      444        2     0.00000   -5.69141    5.14396   20.28655
     175      444        3     0.00000  -11.63197    2.34765   21.28115
     176      444        4     0.00000  -10.86029    2.18505   21.77346
     177      444        3     0.00000   -1.66633    3.44671   17.38129
     178      444        4     0.00000   -1.39732    2.76319   16.81163
     179      444        3     0.00000  -15.77979    2.20011   21.44624
     180      444        4     0.00000  -15.99450    1.29678   21.49384
     181      444        3     0.00000  -13.84237    5.95897   22.83692
     182      444        4     0.00000  -14.33501    6.49795   23.41402
     183      444        3     0.00000  -11.61954    6.51803   19.72537
     184      444        4     0.00000  -11.37346    7.20657   19.15125
     185      444        3     0.00000   -5.04518    5.31961   19.27023
     186      444        4     0.00000   -5.52614    5.55247   18.50871
     187      444        1     0.00000   -2.55482    6.24071   17.76904
     188      444        1     0.00000   -2.52705    9.32357   16.83513
     189      444        2     0.00000   -4.14090    6.39156   16.47876
     190      444        2     0.00000   -4.22400    8.56136   15.90969
     191      444        2     0.00000   -3.02983    8.16098   18.58337
     192      444        2     0.00000  -14.44895    9.58132   20.30945
     193      444        2     0.00000   -1.40297    7.54913   16.57395
     194      444        2     0.00000    0.12196    7.97942   14.98649
     195      444        2     0.00000   -1.77675    0.26197   15.20097
     196      444        2     0.00000  -14.73099    0.95452   29.08413
     197      444        2     0.00000   -3.57970    0.89339   17.72888
     198      444        2     0.00000   -5.41184    1.27269   16.51877
     199      444        2     0.00000  -12.48271    0.20275   18.04673
     200      444        2     0.00000  -10.58651    0.12546   16.89745
     201      444        3     0.00000   -4.64594    7.36615   15.90285
     202      444        4     0.00000   -5.41762    7.20355   15.41054
     203      444        3     0.00000  -14.61158    8.46521   19.80271
     204      444        4     0.00000  -14.88059    7.78169   20.37237
     205      444        3     0.00000   -0.49812    7.21861   15.73776
     206      444        4     0.00000   -0.28341    6.31528   15.69016
     207      444        3     0.00000  -13.51391    0.94047   29.22067
     208      444        4     0.00000  -13.02127    1.47945   28.64358
     209      444        3     0.00000   -4.65837    1.49953   17.45863
     210      444        4     0.00000   -4.90445    2.18807   18.03275
     211      444        3     0.00000  -11.23274    0.30111   17.91376
     212      444        4     0.00000  -10.75178    0.53397   18.67529
     213      444        1     0.00000  -16.61755    5.01850   22.31040
     214      444        1     0.00000  -11.07836    0.00000   14.87360
     215      444        1     0.00000  -10.90855    5.01850   22.31040
     216      444        1     0.00000   -5.36936    0.00000   14.87360
     217      444        1     0.00000    2.98436   18.85179   10.33224
     218      444        1     0.00000    3.01213   15.76893    9.39833
     219      444        2     0.00000    1.39828   18.70094    9.04196
     220      444        2     0.00000    1.31518   16.53114    8.47289
     221      444        2     0.00000    2.50936   16.93152   11.14657
     222      444        2     0.00000   -8.90976   15.51118   12.87265
     223      444        2     0.00000    4.13621   17.54337    9.13715
     224      444        2     0.00000    5.66114   17.11309    7.54969
     225      444        2     0.00000    3.76243   14.79353    7.76417
     226      444        2     0.00000    1.88656   14.10098    6.77373
     227      444        2     0.00000    1.95948   14.16211   10.29208
     228      444        2     0.00000    0.12734   13.78281    9.08197
     229      444        2     0.00000   -6.94353   14.85275   10.60993
     230      444        2     0.00000   -5.04732   14.93004    9.46065
     231      444        3     0.00000    0.89324   17.72635    8.46605
     232      444        4     0.00000    0.12156   17.88895    7.97374
     233      444        3     0.00000   -9.07239   16.62729   12.36591
     234      444        4     0.00000   -9.34141   17.31081   12.93557
     235      444        3     0.00000    5.04106   17.87389    8.30096
     236      444        4     0.00000    5.25577   18.77722    8.25336
     237      444        3     0.00000    3.10364   14.11503    6.91027
     238      444        4     0.00000    3.59628   13.57605    6.33318
     239      444        3     0.00000    0.88081   13.55597   10.02183
     240      444        4     0.00000    0.63474   12.86743   10.59595
     241      444        3     0.00000   -5.69355   14.75439   10.47696
     242      444        4     0.00000   -5.21259   14.52153   11.23849
     243      444        1     0.00000   -8.18391   13.83329   11.97816
     244      444        1     0.00000   -8.21168   10.75043   12.91207
     245      444        2     0.00000   -6.59783   13.68244   13.26844
     246      444        2     0.00000   -6.51473   11.51264   13.83750
     247      444        2     0.00000   -7.70890   11.91302   11.16383
     248      444        2     0.00000    3.71022   10.49268    9.43774
     249      444        2     0.00000   -9.33576   12.52487   13.17325
     250      444        2     0.00000  -10.86069   12.09459   14.76071
     251      444        2     0.00000   -8.96198   19.81203   14.54623
     252      444        2     0.00000    3.99226   19.11948    0.66307
     253      444        2     0.00000   -7.15903   19.18061   12.01831
     254      444        2     0.00000   -5.32689   18.80131   13.22843
     255      444        2     0.00000    1.74398   19.87125   11.70047
     256      444        2     0.00000   -0.15222   19.94854   12.84975
     257      444        3     0.00000   -6.09279   12.70785   13.84435
     258      444        4     0.00000   -5.32111   12.87045   14.33666
     259      444        3     0.00000    3.87285   11.60879    9.94449
     260      444        4     0.00000    4.14186   12.29231    9.37483
     261      444        3     0.00000  -10.24061   12.85539   14.00944
     262      444        4     0.00000  -10.45532   13.75872   14.05704
     263      444        3     0.00000    2.77518   19.13353    0.52653
     264      444        4     0.00000    2.28254   18.59455    1.10362
     265      444        3     0.00000   -6.08036   18.57447   12.28857
     266      444        4     0.00000   -5.83428   17.88593   11.71445
     267      444        3     0.00000    0.49401   19.77289   11.83344
     268      444        4     0.00000    0.01305   19.54003   11.07191
     269      444        1     0.00000   -2.64473   11.25921    4.54136
     270      444        1     0.00000   -2.67250   14.34207    5.47527
     271      444        2     0.00000   -1.05865   11.41006    5.83164
     272      444        2     0.00000   -0.97555   13.57986    6.40070
     273      444        2     0.00000   -2.16972   13.17948    3.72703
     274      444        2     0.00000    9.24940   14.59982    2.00095
     275      444        2     0.00000   -3.79657   12.56763    5.73645
     276      444        2     0.00000   -5.32151   12.99792    7.32391
     277      444        2     0.00000   -3.42280   15.31747    7.10943
     278      444        2     0.00000   -1.54692   16.01002    8.09986
     279      444        2     0.00000   -1.61984   15.94889    4.58151
     280      444        2     0.00000    0.21229   16.32819    5.79163
     281      444        2     0.00000    7.28316   15.25825    4.26367
     282      444        2     0.00000    5.38696   15.18096    5.41295
     283      444        3     0.00000   -0.55361   12.38465    6.40755
     284      444        4     0.00000    0.21807   12.22205    6.89986
     285      444        3     0.00000    9.41203   13.48371    2.50769
     286      444        4     0.00000    9.68105   12.80019    1.93803
     287      444        3     0.00000   -4.70142   12.23711    6.57264
     288      444        4     0.00000   -4.91614   11.33378    6.62024
     289      444        3     0.00000   -2.76400   15.99597    7.96332
     290      444        4     0.00000   -3.25664   16.53495    8.54042
     291      444        3     0.00000   -0.54118   16.55503    4.85177
     292      444        4     0.00000   -0.29510   17.24357    4.27765
     293      444        3     0.00000    6.03319   15.35661    4.39664
     294      444        4     0.00000    5.55223   15.58947    3.63511
     295      444        1     0.00000    8.52354   16.27771    2.89544
     296      444        1     0.00000    8.55132   19.36057    1.96153
     297      444        2     0.00000    6.93746   16.42856    1.60516
     298      444        2     0.00000    6.85436   18.59836    1.03609
     299      444        2     0.00000    8.04854   18.19798    3.70977
     300      444        2     0.00000   -3.37058   19.61832    5.43585
     301      444        2     0.00000    9.67539   17.58613    1.70035
     302      444        2     0.00000   11.20032   18.01642    0.11289
     303      444        2     0.00000    9.30161   10.29897    0.32737
     304      444        2     0.00000   -3.65262   10.99152   14.21053
     305      444        2     0.00000    7.49866   10.93039    2.85528
     306      444        2     0.00000    5.66653   11.30969    1.64517
     307      444        2     0.00000   -1.40435   10.23975    3.17313
     308      444        2     0.00000    0.49186   10.16246    2.02385
     309      444        3     0.00000    6.43243   17.40315    1.02925
     310      444        4     0.00000    5.66075   17.24055    0.53694
     311      444        3     0.00000   -3.53321   18.50221    4.92911
     312      444        4     0.00000   -3.80223   17.81869    5.49877
     313      444        3     0.00000   10.58024   17.25561    0.86416
     314      444        4     0.00000   10.79495   16.35228    0.81656
     315      444        3     0.00000   -2.43554   10.97747   14.34707
     316      444        4     0.00000   -1.94290   11.51645   13.76998
     317      444        3     0.00000    6.42000   11.53653    2.58503
     318      444        4     0.00000    6.17392   12.22507    3.15915
     319      444        3     0.00000   -0.15437   10.33811    3.04016
     320      444        4     0.00000    0.32659   10.57097    3.80169
     321      444        1     0.00000   -5.53918   15.05550    7.43680
     322      444        1     0.00000    0.00000   10.03700    0.00000
     323      444        1     0.00000    0.16982   15.05550    7.43680
     324      444        1     0.00000    5.70900   10.03700    0.00000
     325      444        1     0.00000   -8.09400   18.85179   25.20584
     326      444        1     0.00000   -8.06623   15.76893   24.27193
     327      444        2     0.00000   -9.68008   18.70094   23.91556
     328      444        2     0.00000   -9.76318   16.53114   23.34649
     329      444        2     0.00000   -8.56901   16.93152   26.02017
     330      444        2     0.00000  -19.98813   15.51118   27.74625
     331      444        2     0.00000   -6.94216   17.54337   24.01075
     332      444        2     0.00000   -5.41722   17.11309   22.42329
     333      444        2     0.00000   -7.31593   14.79353   22.63777
     334      444        2     0.00000   -9.19181   14.10098   21.64733
     335      444        2     0.00000   -9.11889   14.16211   25.16568
     336      444        2     0.00000  -10.95102   13.78281   23.95557
     337      444        2     0.00000  -18.02189   14.85275   25.48353
     338      444        2     0.00000  -16.12569   14.93004   24.33425
     339      444        3     0.00000  -10.18512   17.72635   23.33965
     340      444        4     0.00000  -10.95680   17.88895   22.84734
     341      444        3     0.00000  -20.15076   16.62729   27.23951
     342      444        4     0.00000  -20.41978   17.31081   27.80917
     343      444        3     0.00000   -6.03731   17.87389   23.17455
     344      444        4     0.00000   -5.82259   18.77722   23.12696
     345      444        3     0.00000   -7.97473   14.11503   21.78387
     346      444        4     0.00000   -7.48209   13.57605   21.20678
     347      444        3     0.00000  -10.19755   13.55597   24.89543
     348      444        4     0.00000  -10.44363   12.86743   25.46955
     349      444        3     0.00000  -16.77192   14.75439   25.35056
     350      444        4     0.00000  -16.29096   14.52153   26.11209
     351      444        1     0.00000  -19.26227   13.83329   26.85175
     352      444        1     0.00000  -19.29004   10.75043   27.78567
     353      444        2     0.00000  -17.67619   13.68244   28.14204
     354      444        2     0.00000  -17.59309   11.51264   28.71110
     355      444        2     0.00000  -18.78727   11.91302   26.03743
     356      444        2     0.00000   -7.36815   10.49268   24.31134
     357      444        2     0.00000  -20.41412   12.52487   28.04685
     358      444        2     0.00000  -21.93905   12.09459   29.63431
     359      444        2     0.00000  -20.04034   19.81203   29.41983
     360      444        2     0.00000   -7.08611   19.11948   15.53666
     361      444        2     0.00000  -18.23739   19.18061   26.89191
     362      444        2     0.00000  -16.40526   18.80131   28.10203
     363      444        2     0.00000   -9.33438   19.87125   26.57406
     364      444        2     0.00000  -11.23059   19.94854   27.72335
     365      444        3     0.00000  -17.17116   12.70785   28.71795
     366      444        4     0.00000  -16.39948   12.87045   29.21026
     367      444        3     0.00000   -7.20552   11.60879   24.81809
     368      444        4     0.00000   -6.93650   12.29231   24.24843
     369      444        3     0.00000  -21.31897   12.85539   28.88304
     370      444        4     0.00000  -21.53368   13.75872   28.93064
     371      444        3     0.00000   -8.30319   19.13353   15.40012
     372      444        4     0.00000   -8.79583   18.59455   15.97722
     373      444        3     0.00000  -17.15873   18.57447   27.16217
     374      444        4     0.00000  -16.91265   17.88593   26.58805
     375      444        3     0.00000  -10.58436   19.77289   26.70703
     376      444        4     0.00000  -11.06532   19.54003   25.94551
     377      444        1     0.00000  -13.72309   11.25921   19.41496
     378      444        1     0.00000  -13.75086   14.34207   20.34887
     379      444        2     0.00000  -12.13701   11.41006   20.70524
     380      444        2     0.00000  -12.05391   13.57986   21.27430
     381      444        2     0.00000  -13.24809   13.17948   18.60063
     382      444        2     0.00000   -1.82897   14.59982   16.87454
     383      444        2     0.00000  -14.87494   12.56763   20.61005
     384      444        2     0.00000  -16.39987   12.99792   22.19751
     385      444        2     0.00000  -14.50116   15.31747   21.98303
     386      444        2     0.00000  -12.62529   16.01002   22.97346
     387      444        2     0.00000  -12.69821   15.94889   19.45511
     388      444        2     0.00000  -10.86607   16.32819   20.66523
     389      444        2     0.00000   -3.79520   15.25825   19.13726
     390      444        2     0.00000   -5.69141   15.18096   20.28655
     391      444        3     0.00000  -11.63197   12.38465   21.28115
     392      444        4     0.00000  -10.86029   12.22205   21.77346