units           real
atom_style      full
boundary        p p p

pair_style      lj/cut 12.500
bond_style      harmonic
angle_style     hybrid fourier cosine/periodic
dihedral_style  harmonic
improper_style  fourier

pair_modify     tail yes mix arithmetic
dielectric      1.0
special_bonds   lj/coul 0.0 0.0 1.0
box tilt        large

The 'box' command has been removed and will be ignored

read_data       data.IRMOF-10
Reading data file ...
  triclinic box = (0 0 0) to (48.622 42.107887 39.699697) with tilt (24.311 24.311 14.035962)
WARNING: Triclinic box skew is large. LAMMPS will run inefficiently. (../domain.cpp:220)
  2 by 2 by 2 MPI processor grid
  reading atoms ...
  1520 atoms
  scanning bonds ...
  4 = max bonds/atom
  scanning angles ...
  6 = max angles/atom
  scanning dihedrals ...
  8 = max dihedrals/atom
  scanning impropers ...
  3 = max impropers/atom
  reading bonds ...
  1840 bonds
  reading angles ...
  3264 angles
  reading dihedrals ...
  4416 dihedrals
  reading impropers ...
  2592 impropers
Finding 1-2 1-3 1-4 neighbors ...
  special bond factors lj:    0        0        1       
  special bond factors coul:  0        0        1       
     4 = max # of 1-2 neighbors
    12 = max # of 1-3 neighbors
    16 = max # of special neighbors
  special bonds CPU = 0.001 seconds
  read_data CPU = 0.066 seconds

#### Atom Groupings ####
group           fram     id   1:1520
1520 atoms in group fram
#### END Atom Groupings ####


#############################  Equilibration  ###################################
thermo_style 	custom step temp vol
minimize        0.0 1.0e-3 1000 1000
Generated 10 of 10 mixed pair_coeff terms from arithmetic mixing rule
Neighbor list info ...
  update: every = 1 steps, delay = 0 steps, check = yes
  max neighbors/atom: 2000, page size: 100000
  master list distance cutoff = 14.5
  ghost atom cutoff = 14.5
  binsize = 7.25, bins = 14 8 6
  1 neighbor lists, perpetual/occasional/extra = 1 0 0
  (1) pair lj/cut, perpetual
      attributes: half, newton on
      pair build: half/bin/newton/tri
      stencil: half/bin/3d/tri
      bin: standard
WARNING: Inconsistent image flags (../domain.cpp:815)
Per MPI rank memory allocation (min/avg/max) = 13.75 | 13.75 | 13.75 Mbytes
   Step          Temp          Volume    
         0   0              81279.956    
        34   0              81279.956    
Loop time of 0.0368638 on 8 procs for 34 steps with 1520 atoms

98.9% CPU use with 8 MPI tasks x no OpenMP threads

Minimization stats:
  Stopping criterion = force tolerance
  Energy initial, next-to-last, final = 
      10947.3604104234   2931.60877592592   2931.60877592542
  Force two-norm initial, final = 4709.1182 0.00083930791
  Force max component initial, final = 200.20419 4.2203877e-05
  Final line search alpha, max atom move = 1 4.2203877e-05
  Iterations, force evaluations = 34 68

MPI task timing breakdown:
Section |  min time  |  avg time  |  max time  |%varavg| %total
---------------------------------------------------------------
Pair    | 0.019176   | 0.020885   | 0.023565   |   1.0 | 56.65
Bond    | 0.004618   | 0.0047299  | 0.0048243  |   0.1 | 12.83
Neigh   | 0          | 0          | 0          |   0.0 |  0.00
Comm    | 0.0073196  | 0.010053   | 0.011849   |   1.4 | 27.27
Output  | 0          | 0          | 0          |   0.0 |  0.00
Modify  | 0          | 0          | 0          |   0.0 |  0.00
Other   |            | 0.001197   |            |       |  3.25

Nlocal:            190 ave         190 max         190 min
Histogram: 8 0 0 0 0 0 0 0 0 0
Nghost:           2614 ave        2614 max        2614 min
Histogram: 8 0 0 0 0 0 0 0 0 0
Neighs:          20544 ave       20544 max       20544 min
Histogram: 8 0 0 0 0 0 0 0 0 0

Total # of neighbors = 164352
Ave neighs/atom = 108.12632
Ave special neighs/atom = 6.7157895
Neighbor list builds = 0
Dangerous builds = 0
velocity        all create ${t} 331989 rot yes dist gaussian
velocity        all create 100 331989 rot yes dist gaussian

fix             1 all nvt temp ${t} ${t} ${tdamp}
fix             1 all nvt temp 100 ${t} ${tdamp}
fix             1 all nvt temp 100 100 ${tdamp}
fix             1 all nvt temp 100 100 100
thermo          1000
run             ${d1}
run             200000
Generated 10 of 10 mixed pair_coeff terms from arithmetic mixing rule
WARNING: Inconsistent image flags (../domain.cpp:815)
Per MPI rank memory allocation (min/avg/max) = 12.63 | 12.63 | 12.63 Mbytes
   Step          Temp          Volume    
        34   100            81279.956    
      1000   102.21303      81279.956    
      2000   100.56941      81279.956    
      3000   97.535981      81279.956    
      4000   94.901115      81279.956    
      5000   98.304827      81279.956    
      6000   102.33025      81279.956    
      7000   99.81893       81279.956    
      8000   100.30333      81279.956    
      9000   99.056428      81279.956    
     10000   99.54947       81279.956    
     11000   107.75593      81279.956    
     12000   102.36945      81279.956    
     13000   98.864027      81279.956    
     14000   98.748772      81279.956    
     15000   100.44938      81279.956    
     16000   102.25595      81279.956    
     17000   99.514309      81279.956    
     18000   96.029349      81279.956    
     19000   101.39611      81279.956    
     20000   101.21802      81279.956    
     21000   100.55461      81279.956    
     22000   98.652678      81279.956    
     23000   100.85473      81279.956    
     24000   101.14576      81279.956    
     25000   99.405774      81279.956    
     26000   104.08442      81279.956    
     27000   100.14224      81279.956    
     28000   98.285733      81279.956    
     29000   96.261701      81279.956    
     30000   97.17085       81279.956    
     31000   101.01497      81279.956    
     32000   96.339885      81279.956    
     33000   99.491616      81279.956    
     34000   99.142532      81279.956    
     35000   100.11843      81279.956    
     36000   95.289322      81279.956    
     37000   98.18217       81279.956    
     38000   101.18062      81279.956    
     39000   103.14437      81279.956    
     40000   99.989325      81279.956    
     41000   97.501125      81279.956    
     42000   98.827771      81279.956    
     43000   100.18676      81279.956    
     44000   99.961435      81279.956    
     45000   100.32437      81279.956    
     46000   102.88079      81279.956    
     47000   98.669408      81279.956    
     48000   95.419501      81279.956    
     49000   101.64331      81279.956    
     50000   102.8969       81279.956    
     51000   101.20167      81279.956    
     52000   99.932917      81279.956    
     53000   102.21182      81279.956    
     54000   96.906183      81279.956    
     55000   96.943039      81279.956    
     56000   97.686453      81279.956    
     57000   93.777656      81279.956    
     58000   102.56742      81279.956    
     59000   98.812617      81279.956    
     60000   99.85189       81279.956    
     61000   101.53199      81279.956    
     62000   102.53932      81279.956    
     63000   99.570979      81279.956    
     64000   100.65522      81279.956    
     65000   98.70367       81279.956    
     66000   97.114778      81279.956    
     67000   101.46431      81279.956    
     68000   96.787601      81279.956    
     69000   101.59011      81279.956    
     70000   102.16808      81279.956    
     71000   99.021914      81279.956    
     72000   102.03606      81279.956    
     73000   105.69691      81279.956    
     74000   101.95676      81279.956    
     75000   101.50155      81279.956    
     76000   100.62872      81279.956    
     77000   97.27821       81279.956    
     78000   99.488259      81279.956    
     79000   99.201632      81279.956    
     80000   98.987177      81279.956    
     81000   98.424552      81279.956    
     82000   100.7137       81279.956    
     83000   100.05624      81279.956    
     84000   100.3007       81279.956    
     85000   97.267136      81279.956    
     86000   99.830867      81279.956    
     87000   102.77331      81279.956    
     88000   97.435924      81279.956    
     89000   98.180528      81279.956    
     90000   101.40042      81279.956    
     91000   96.799761      81279.956    
     92000   101.90299      81279.956    
     93000   100.08814      81279.956    
     94000   98.863944      81279.956    
     95000   94.128648      81279.956    
     96000   98.367153      81279.956    
     97000   97.943154      81279.956    
     98000   98.166341      81279.956    
     99000   96.437347      81279.956    
    100000   101.48227      81279.956    
    101000   102.24751      81279.956    
    102000   98.694457      81279.956    
    103000   102.69379      81279.956    
    104000   95.53862       81279.956    
    105000   100.60427      81279.956    
    106000   96.503753      81279.956    
    107000   100.31546      81279.956    
    108000   101.87141      81279.956    
    109000   95.979957      81279.956    
    110000   102.60239      81279.956    
    111000   98.737944      81279.956    
    112000   95.903362      81279.956    
    113000   104.2936       81279.956    
    114000   98.266601      81279.956    
    115000   95.914269      81279.956    
    116000   100.37097      81279.956    
    117000   102.49977      81279.956    
    118000   97.513683      81279.956    
    119000   101.59436      81279.956    
    120000   99.693474      81279.956    
    121000   96.84402       81279.956    
    122000   101.28475      81279.956    
    123000   96.556931      81279.956    
    124000   99.855207      81279.956    
    125000   101.34511      81279.956    
    126000   98.552401      81279.956    
    127000   100.38736      81279.956    
    128000   102.21994      81279.956    
    129000   99.140128      81279.956    
    130000   99.597523      81279.956    
    131000   103.14776      81279.956    
    132000   105.29614      81279.956    
    133000   99.525024      81279.956    
    134000   100.38426      81279.956    
    135000   98.833194      81279.956    
    136000   105.33701      81279.956    
    137000   96.560754      81279.956    
    138000   99.943408      81279.956    
    139000   100.26015      81279.956    
    140000   97.305894      81279.956    
    141000   103.19479      81279.956    
    142000   102.48201      81279.956    
    143000   99.705444      81279.956    
    144000   99.939915      81279.956    
    145000   99.197802      81279.956    
    146000   101.12236      81279.956    
    147000   98.759002      81279.956    
    148000   98.484527      81279.956    
    149000   98.412837      81279.956    
    150000   99.007595      81279.956    
    151000   98.726348      81279.956    
    152000   99.009898      81279.956    
    153000   101.23263      81279.956    
    154000   94.01102       81279.956    
    155000   100.15259      81279.956    
    156000   98.74804       81279.956    
    157000   98.725556      81279.956    
    158000   99.116905      81279.956    
    159000   100.48937      81279.956    
    160000   100.4658       81279.956    
    161000   98.447584      81279.956    
    162000   101.59984      81279.956    
    163000   100.50872      81279.956    
    164000   95.791149      81279.956    
    165000   100.79609      81279.956    
    166000   98.594701      81279.956    
    167000   100.70411      81279.956    
    168000   102.38199      81279.956    
    169000   104.35641      81279.956    
    170000   96.916844      81279.956    
    171000   102.24359      81279.956    
    172000   99.277302      81279.956    
    173000   99.090449      81279.956    
    174000   103.38493      81279.956    
    175000   102.53474      81279.956    
    176000   98.482489      81279.956    
    177000   100.546        81279.956    
    178000   99.949716      81279.956    
    179000   97.145379      81279.956    
    180000   103.25816      81279.956    
    181000   100.82811      81279.956    
    182000   99.663417      81279.956    
    183000   97.922565      81279.956    
    184000   99.483101      81279.956    
    185000   98.052861      81279.956    
    186000   101.19575      81279.956    
    187000   95.8548        81279.956    
    188000   101.58267      81279.956    
    189000   96.705274      81279.956    
    190000   96.483121      81279.956    
    191000   99.843773      81279.956    
    192000   99.303317      81279.956    
    193000   96.087918      81279.956    
    194000   103.10518      81279.956    
    195000   102.66356      81279.956    
    196000   98.972391      81279.956    
    197000   102.01372      81279.956    
    198000   99.396267      81279.956    
    199000   100.38307      81279.956    
    200000   101.16777      81279.956    
    200034   100.93267      81279.956    
Loop time of 70.5902 on 8 procs for 200000 steps with 1520 atoms

Performance: 244.793 ns/day, 0.098 hours/ns, 2833.254 timesteps/s, 4.307 Matom-step/s
99.6% CPU use with 8 MPI tasks x no OpenMP threads

MPI task timing breakdown:
Section |  min time  |  avg time  |  max time  |%varavg| %total
---------------------------------------------------------------
Pair    | 33.292     | 34.135     | 35.858     |  14.2 | 48.36
Bond    | 11.265     | 11.412     | 11.702     |   4.1 | 16.17
Neigh   | 0.8142     | 0.82702    | 0.83787    |   0.8 |  1.17
Comm    | 19.657     | 21.74      | 22.812     |  21.1 | 30.80
Output  | 0.0018305  | 0.0020934  | 0.0033093  |   1.0 |  0.00
Modify  | 1.4424     | 1.6248     | 1.7986     |   9.9 |  2.30
Other   |            | 0.8497     |            |       |  1.20

Nlocal:            190 ave         195 max         185 min
Histogram: 1 0 0 1 2 2 0 0 0 2
Nghost:           2614 ave        2619 max        2609 min
Histogram: 1 1 0 0 0 2 2 1 0 1
Neighs:        20399.5 ave       21064 max       19709 min
Histogram: 1 0 0 1 3 1 0 0 1 1

Total # of neighbors = 163196
Ave neighs/atom = 107.36579
Ave special neighs/atom = 6.7157895
Neighbor list builds = 916
Dangerous builds = 0
unfix		1

fix             1 all npt temp ${t} ${t} ${tdamp} tri ${p} ${p} ${pdamp}
fix             1 all npt temp 100 ${t} ${tdamp} tri ${p} ${p} ${pdamp}
fix             1 all npt temp 100 100 ${tdamp} tri ${p} ${p} ${pdamp}
fix             1 all npt temp 100 100 100 tri ${p} ${p} ${pdamp}
fix             1 all npt temp 100 100 100 tri 1 ${p} ${pdamp}
fix             1 all npt temp 100 100 100 tri 1 1 ${pdamp}
fix             1 all npt temp 100 100 100 tri 1 1 1000
thermo          1000
run             ${d2}
run             200000
Generated 10 of 10 mixed pair_coeff terms from arithmetic mixing rule
WARNING: Inconsistent image flags (../domain.cpp:815)
Per MPI rank memory allocation (min/avg/max) = 12.64 | 12.64 | 12.64 Mbytes
   Step          Temp          Volume    
    200034   100.93267      81279.956    
    201000   102.46645      78337.457    
    202000   98.634532      78428.237    
    203000   102.04546      78286.347    
    204000   99.274741      78643.682    
    205000   99.850515      78539.173    
    206000   101.32889      78698.795    
    207000   97.836542      78460.942    
    208000   99.985924      78339.933    
    209000   97.912197      78536.446    
    210000   96.484766      78424.703    
    211000   98.664246      78570.303    
    212000   98.184778      78606.596    
    213000   100.89646      78598.111    
    214000   102.31558      78573.904    
    215000   98.703024      78420.308    
    216000   101.13319      78354.85     
    217000   98.20084       78540.693    
    218000   97.366799      78541.389    
    219000   98.730865      78529.179    
    220000   97.74384       78548.708    
    221000   101.95003      78560.463    
    222000   102.63698      78471.572    
    223000   98.18223       78311.09     
    224000   100.7844       78485.88     
    225000   96.720674      78089.551    
    226000   98.717136      78415.45     
    227000   100.00287      78479.931    
    228000   98.294855      78518.59     
    229000   100.56332      78446.352    
    230000   102.85374      78342.357    
    231000   98.939172      78239.273    
    232000   100.90187      78516.062    
    233000   102.16843      78641.868    
    234000   101.30503      78617.649    
    235000   100.60934      78378.38     
    236000   102.41615      78128.59     
    237000   98.862355      78470.842    
    238000   101.36362      78300.075    
    239000   98.187823      78511.533    
    240000   101.13494      78169.257    
    241000   103.58081      78453.546    
    242000   100.47545      78492.534    
    243000   95.858098      78504.393    
    244000   100.81595      78219.837    
    245000   101.10269      78339.749    
    246000   97.318737      78209.115    
    247000   100.0584       78607.902    
    248000   101.84411      78545.591    
    249000   97.042767      78551.567    
    250000   98.059921      78368.575    
    251000   96.782694      78418.951    
    252000   100.94705      78251.45     
    253000   99.188223      78464.357    
    254000   97.529391      78237.878    
    255000   101.86324      78545.16     
    256000   100.23948      78304.735    
    257000   97.983192      78390.798    
    258000   96.201947      78707.575    
    259000   102.46228      78629.489    
    260000   103.87436      78673.129    
    261000   99.119069      78360.258    
    262000   101.18138      78390.384    
    263000   99.169516      78403.75     
    264000   97.525387      78509.335    
    265000   98.506015      78354.418    
    266000   100.84341      78413.679    
    267000   99.741458      78277.241    
    268000   99.978981      78347.742    
    269000   96.867236      78447.149    
    270000   98.687955      78372.717    
    271000   97.243432      78427.024    
    272000   101.57572      78248.984    
    273000   98.202194      78263.104    
    274000   98.728834      78287.901    
    275000   100.93568      78234.178    
    276000   99.462074      78546.311    
    277000   98.599291      78480.919    
    278000   100.604        78260.624    
    279000   101.46475      78292.949    
    280000   97.937323      78439.972    
    281000   97.542406      78552.787    
    282000   100.13321      78454.761    
    283000   98.882095      78378.698    
    284000   99.480471      78321.075    
    285000   103.13955      78519.558    
    286000   100.29714      78333.169    
    287000   97.665307      78164.805    
    288000   103.32815      78337.196    
    289000   102.07508      78567.342    
    290000   99.116925      78586.652    
    291000   100.15687      78636.338    
    292000   101.69205      78529.044    
    293000   101.54316      78330.898    
    294000   102.30624      78481.939    
    295000   100.18149      78332.33     
    296000   98.44378       78379.21     
    297000   100.33063      78636.91     
    298000   103.67965      78693.231    
    299000   98.354828      78491.637    
    300000   98.687354      78329.534    
    301000   102.92572      78431.059    
    302000   100.03461      78576.397    
    303000   100.95225      78599.686    
    304000   98.359393      78452.339    
    305000   97.58629       78386.719    
    306000   101.46512      78381.781    
    307000   100.47664      78489.387    
    308000   101.31146      78543.916    
    309000   97.463901      78448.233    
    310000   103.05187      78445.815    
    311000   95.904069      78472.153    
    312000   100.94126      78517.35     
    313000   101.96021      78377.965    
    314000   98.027488      78264.23     
    315000   102.85437      78282.368    
    316000   99.713726      78424.651    
    317000   101.46089      78570.449    
    318000   101.50498      78672.534    
    319000   100.29869      78431.176    
    320000   101.23023      78270.503    
    321000   96.818284      78323.342    
    322000   100.99988      78421.213    
    323000   98.451094      78441.138    
    324000   95.580817      78471.605    
    325000   103.12354      78289.776    
    326000   98.021275      78369.281    
    327000   96.740659      78460.316    
    328000   101.13448      78368.489    
    329000   99.520617      78340.399    
    330000   98.503883      78580.567    
    331000   100.93497      78466.869    
    332000   100.44589      78344.141    
    333000   101.55801      78412.925    
    334000   99.04438       78589.527    
    335000   100.26334      78442.579    
    336000   99.765771      78362.124    
    337000   102.80246      78409.46     
    338000   97.723928      78450.637    
    339000   97.783062      78420.656    
    340000   97.451354      78388.295    
    341000   99.574686      78332.728    
    342000   102.75042      78484.232    
    343000   103.49918      78374.756    
    344000   100.53827      78357.186    
    345000   99.628455      78298.869    
    346000   99.458448      78424.052    
    347000   98.187352      78293.074    
    348000   98.658756      78370.804    
    349000   99.616288      78278.241    
    350000   99.56142       78220.953    
    351000   101.52144      78270.949    
    352000   104.15519      78522.098    
    353000   101.05693      78487.979    
    354000   100.06211      78055.036    
    355000   100.08774      78384.539    
    356000   103.97736      78386.37     
    357000   98.538492      78143.649    
    358000   101.13361      78409.091    
    359000   99.502786      78448.24     
    360000   100.01205      78310.081    
    361000   103.08635      78525.331    
    362000   100.6077       78407.056    
    363000   101.82812      78343.549    
    364000   100.0953       78454.08     
    365000   105.30934      78242.641    
    366000   100.92725      78492.213    
    367000   100.64436      78370.413    
    368000   98.123052      78290.674    
    369000   103.34347      78261.641    
    370000   99.150412      78520.343    
    371000   100.19234      78535.796    
    372000   105.39894      78299.296    
    373000   100.39432      78263.674    
    374000   100.34732      78653.629    
    375000   101.66998      78469.641    
    376000   99.679304      78223.988    
    377000   97.386019      78345.041    
    378000   100.33026      78595.903    
    379000   96.902314      78460.485    
    380000   103.09287      78301.826    
    381000   102.67868      78627.978    
    382000   101.72126      78535.68     
    383000   97.221066      78372.388    
    384000   100.00547      78399.239    
    385000   96.317133      78484.995    
    386000   98.829897      78372.203    
    387000   99.01709       78282.569    
    388000   99.650829      78373.515    
    389000   99.692841      78560.262    
    390000   97.08329       78654.322    
    391000   100.95293      78488.672    
    392000   100.57741      78303.334    
    393000   100.72042      78458.953    
    394000   95.47263       78558.072    
    395000   99.699139      78595.775    
    396000   98.48771       78479.252    
    397000   99.875149      78430.993    
    398000   102.22572      78486.926    
    399000   99.457461      78526.763    
    400000   103.59643      78428.67     
    400034   98.143434      78460.323    
Loop time of 82.9968 on 8 procs for 200000 steps with 1520 atoms

Performance: 208.201 ns/day, 0.115 hours/ns, 2409.733 timesteps/s, 3.663 Matom-step/s
99.7% CPU use with 8 MPI tasks x no OpenMP threads

MPI task timing breakdown:
Section |  min time  |  avg time  |  max time  |%varavg| %total
---------------------------------------------------------------
Pair    | 36.852     | 37.988     | 39.955     |  16.8 | 45.77
Bond    | 14.415     | 14.706     | 15.01      |   4.4 | 17.72
Neigh   | 1.3613     | 1.3745     | 1.3884     |   0.7 |  1.66
Comm    | 20.654     | 22.894     | 24.316     |  24.0 | 27.58
Output  | 0.0018842  | 0.0021797  | 0.0036459  |   1.2 |  0.00
Modify  | 5.1006     | 5.1597     | 5.2182     |   1.9 |  6.22
Other   |            | 0.8732     |            |       |  1.05

Nlocal:            190 ave         195 max         184 min
Histogram: 1 1 0 1 1 0 1 0 1 2
Nghost:           2616 ave        2622 max        2611 min
Histogram: 2 1 0 1 0 1 1 0 1 1
Neighs:        20942.4 ave       21684 max       20148 min
Histogram: 1 0 1 1 1 1 0 1 1 1

Total # of neighbors = 167539
Ave neighs/atom = 110.22303
Ave special neighs/atom = 6.7157895
Neighbor list builds = 1484
Dangerous builds = 0

reset_timestep  0
#############################  Production ###################################
variable        V       equal vol 		    #Volume variable
variable        a	 	equal cella 		#Lattice variable
variable        b	 	equal cellb 		#Lattice variable
variable        c	 	equal cellc 		#Lattice variable
fix 			4 all ave/time 1 ${d3} ${d3} v_V v_a v_b v_c ave running file results_${t}.txt overwrite
fix 			4 all ave/time 1 600000 ${d3} v_V v_a v_b v_c ave running file results_${t}.txt overwrite
fix 			4 all ave/time 1 600000 600000 v_V v_a v_b v_c ave running file results_${t}.txt overwrite
fix 			4 all ave/time 1 600000 600000 v_V v_a v_b v_c ave running file results_100.txt overwrite
fix 			5 all ave/time 1 10000 10000 v_V v_a v_b v_c file summary_${t}.txt
fix 			5 all ave/time 1 10000 10000 v_V v_a v_b v_c file summary_100.txt
thermo          1000
run             ${d3}
run             600000
Generated 10 of 10 mixed pair_coeff terms from arithmetic mixing rule
WARNING: Inconsistent image flags (../domain.cpp:815)
Per MPI rank memory allocation (min/avg/max) = 12.64 | 12.64 | 12.64 Mbytes
   Step          Temp          Volume    
         0   98.143434      78460.323    
      1000   100.86424      78453.639    
      2000   101.73931      78435.184    
      3000   97.582838      78246.148    
      4000   99.431665      78244.862    
      5000   102.35367      78392.343    
      6000   100.81557      78389.031    
      7000   98.594385      78583.867    
      8000   102.43687      78369.082    
      9000   103.10216      78645.777    
     10000   101.06805      78549.192    
     11000   101.28338      78473.677    
     12000   99.986343      78241.258    
     13000   101.20956      78265.665    
     14000   100.85616      78345.685    
     15000   100.11106      78644.584    
     16000   101.26616      78601.258    
     17000   101.40503      78237.608    
     18000   101.02079      78443.817    
     19000   101.95121      78443.461    
     20000   98.267174      78409.911    
     21000   98.012378      78390.25     
     22000   100.21247      78409.963    
     23000   99.385034      78258.271    
     24000   99.850404      78415.387    
     25000   102.09915      78562.804    
     26000   99.66847       78615.562    
     27000   99.015385      78562.491    
     28000   98.439243      78505.322    
     29000   99.538304      78244.545    
     30000   98.451409      78336.184    
     31000   101.26028      78091.181    
     32000   97.054677      78560.302    
     33000   102.61792      78489.042    
     34000   98.830615      78402.891    
     35000   102.03986      78526.871    
     36000   97.967082      78400.686    
     37000   100.27085      78185.852    
     38000   103.67414      78312.731    
     39000   96.790128      78536.656    
     40000   99.945905      78320.32     
     41000   98.739696      78657.544    
     42000   104.2775       78454.342    
     43000   99.039852      78438.438    
     44000   101.35384      78517.276    
     45000   98.397235      78215.373    
     46000   103.03335      78148.16     
     47000   104.13455      78428.277    
     48000   96.328348      78314.319    
     49000   104.32498      78398.509    
     50000   95.797202      78280.863    
     51000   99.675855      78379.006    
     52000   101.37321      78512.114    
     53000   101.97157      78456.155    
     54000   100.07525      78400.475    
     55000   100.97676      78173.728    
     56000   97.831746      78266.699    
     57000   101.06704      78386.627    
     58000   100.35882      78426.113    
     59000   98.033336      78363.684    
     60000   98.352145      78449.277    
     61000   97.752642      78378.52     
     62000   100.01181      78488.993    
     63000   99.855213      78416.112    
     64000   103.74147      78373.992    
     65000   103.96715      78524.254    
     66000   99.13327       78517.568    
     67000   100.96879      78201.482    
     68000   100.96158      78397.304    
     69000   100.70126      78468.856    
     70000   104.74993      78499.409    
     71000   97.246332      78448.801    
     72000   101.93541      78646.714    
     73000   97.10086       78455.401    
     74000   100.98604      78338.826    
     75000   99.633742      78481.682    
     76000   98.697724      78363.358    
     77000   99.49486       78266.448    
     78000   103.36895      78460.634    
     79000   99.59315       78602.299    
     80000   97.788922      78258.574    
     81000   99.520783      78487.48     
     82000   99.50141       78758.69     
     83000   102.89654      78355.475    
     84000   97.975899      78323.041    
     85000   99.563517      78406.071    
     86000   104.41076      78511.512    
     87000   97.820413      78510.476    
     88000   99.826449      78559.89     
     89000   100.56506      78399.569    
     90000   103.0075       78470.115    
     91000   98.636608      78539.772    
     92000   98.698208      78308.922    
     93000   99.677537      78399.112    
     94000   96.937449      78364.614    
     95000   97.446574      78456.324    
     96000   99.449527      78407.731    
     97000   102.46664      78414.097    
     98000   102.24242      78373.621    
     99000   98.538607      78509.363    
    100000   101.675        78523.098    
    101000   99.469008      78571.372    
    102000   102.0199       78360.927    
    103000   99.854883      78331.371    
    104000   99.141241      78317.935    
    105000   102.69008      78620.667    
    106000   98.76064       78437.591    
    107000   95.903735      78459.357    
    108000   98.200125      78383.727    
    109000   96.350636      78361.058    
    110000   99.159285      78456.801    
    111000   99.047812      78527.303    
    112000   94.563401      78379.628    
    113000   102.1672       78194.496    
    114000   99.250737      78318.596    
    115000   98.49692       78460.041    
    116000   98.286086      78332.793    
    117000   99.285112      78247.779    
    118000   101.22282      78307.192    
    119000   100.92778      78381.093    
    120000   101.28727      78368.918    
    121000   102.58849      78208.599    
    122000   95.491068      78518.746    
    123000   98.3552        78563.838    
    124000   101.02116      78524.206    
    125000   99.803891      78285.455    
    126000   100.15525      78311.057    
    127000   99.351764      78438.092    
    128000   101.59673      78481.181    
    129000   99.571053      78550.342    
    130000   103.50345      78336.32     
    131000   99.156758      78545.469    
    132000   98.72614       78448.558    
    133000   96.92033       78363.873    
    134000   101.25495      78342.972    
    135000   98.402762      78516.762    
    136000   98.384624      78612.158    
    137000   95.762506      78629.451    
    138000   98.429819      78360.935    
    139000   98.822284      78362.031    
    140000   99.952807      78577.058    
    141000   101.12024      78433.649    
    142000   94.408139      78329.366    
    143000   101.3259       78344.122    
    144000   98.58685       78423.347    
    145000   98.143313      78305.608    
    146000   100.63951      78213.306    
    147000   98.606757      78546.838    
    148000   98.063189      78544.023    
    149000   98.091847      78334.338    
    150000   98.081892      78355.196    
    151000   101.23368      78212.355    
    152000   100.37155      78202.523    
    153000   99.707526      78554.156    
    154000   97.019419      78369.511    
    155000   100.08423      78278.139    
    156000   98.97298       78401.673    
    157000   100.59953      78631.946    
    158000   99.385735      78463.353    
    159000   97.527548      78490.783    
    160000   99.038786      78418.188    
    161000   98.097981      78399.307    
    162000   99.23795       78388.885    
    163000   101.68961      78478.511    
    164000   100.07328      78328.502    
    165000   101.73589      78407.438    
    166000   100.64792      78439.996    
    167000   100.55843      78328.006    
    168000   99.430446      78385.716    
    169000   101.25208      78381.417    
    170000   99.781119      78581.533    
    171000   102.01237      78193.023    
    172000   101.16275      78240.324    
    173000   98.635042      78342.711    
    174000   97.686347      78389.028    
    175000   100.59466      78557.522    
    176000   103.26864      78405.55     
    177000   99.762071      78344.621    
    178000   101.97193      78217.128    
    179000   95.817009      78307.191    
    180000   100.22409      78465.502    
    181000   99.514225      78496.726    
    182000   98.448489      78373.934    
    183000   100.294        78548.686    
    184000   100.42913      78462.338    
    185000   99.777084      78333.972    
    186000   99.480316      78434.457    
    187000   100.84844      78382.65     
    188000   98.025872      78394.193    
    189000   98.43448       78268.617    
    190000   102.34008      78356.979    
    191000   103.92768      78510.674    
    192000   98.137752      78436.915    
    193000   100.04954      78521.091    
    194000   101.05511      78532.744    
    195000   99.625767      78451.961    
    196000   99.688868      78341.508    
    197000   102.85994      78526.704    
    198000   101.00039      78704.027    
    199000   101.19369      78583.339    
    200000   100.13828      78407.331    
    201000   104.26922      78441.087    
    202000   99.230093      78544.48     
    203000   97.657059      78724.27     
    204000   101.18674      78614.743    
    205000   99.75339       78438.73     
    206000   102.60843      78346.15     
    207000   100.39078      78555.146    
    208000   104.11138      78724.654    
    209000   99.655416      78563.11     
    210000   99.234366      78414.498    
    211000   100.18393      78162.82     
    212000   102.87148      78503.421    
    213000   100.60431      78513.784    
    214000   96.752912      78746.215    
    215000   99.398991      78507.812    
    216000   97.290652      78381.237    
    217000   102.58386      78509.658    
    218000   100.85738      78392.82     
    219000   98.952809      78483.867    
    220000   95.780937      78535.609    
    221000   102.34699      78486.519    
    222000   98.530432      78458.399    
    223000   101.47148      78351.962    
    224000   100.99411      78529.676    
    225000   100.06627      78599.49     
    226000   99.789291      78579.884    
    227000   98.948843      78210.594    
    228000   96.39976       78323.703    
    229000   97.41952       78528.801    
    230000   102.93179      78383.049    
    231000   101.96863      78642.294    
    232000   102.93117      78404.83     
    233000   100.65299      78212.412    
    234000   100.55821      78243.918    
    235000   99.725788      78239.597    
    236000   100.78986      78324.153    
    237000   103.41613      78463.943    
    238000   97.166371      78505.24     
    239000   100.93929      78656.208    
    240000   102.03581      78483.158    
    241000   100.55939      78238.447    
    242000   100.28383      78393.711    
    243000   100.32112      78486.661    
    244000   98.575483      78598.317    
    245000   99.78492       78416.927    
    246000   101.59664      78351.933    
    247000   99.953578      78390.213    
    248000   102.52013      78508.051    
    249000   97.247907      78558.958    
    250000   98.938528      78248.331    
    251000   102.11201      78463.41     
    252000   98.941347      78476.705    
    253000   102.5822       78446.29     
    254000   99.221051      78511.958    
    255000   100.77731      78396.297    
    256000   101.18826      78390.979    
    257000   98.535461      78402.72     
    258000   103.02052      78533.688    
    259000   97.47627       78530.15     
    260000   100.8344       78609.599    
    261000   98.967519      78520.238    
    262000   100.15519      78275.754    
    263000   98.202132      78305.173    
    264000   98.832075      78557.463    
    265000   99.645983      78521.5      
    266000   98.929239      78520.576    
    267000   101.86589      78259.072    
    268000   97.814419      78250.99     
    269000   100.92859      78332.994    
    270000   100.95349      78411.304    
    271000   99.169912      78499.567    
    272000   98.211895      78313.234    
    273000   95.518161      78376.585    
    274000   96.068383      78540.898    
    275000   97.980545      78364.698    
    276000   99.409774      78459.587    
    277000   100.9795       78379.19     
    278000   99.735568      78325.222    
    279000   96.808197      78297.764    
    280000   99.764036      78515.685    
    281000   97.159179      78386.171    
    282000   96.201634      78417.975    
    283000   97.945499      78485.632    
    284000   100.38502      78308.519    
    285000   100.55511      78427.454    
    286000   97.053764      78534.521    
    287000   97.98311       78256.798    
    288000   99.067475      78352.855    
    289000   98.037496      78421.011    
    290000   99.888616      78507.529    
    291000   97.606664      78478.135    
    292000   101.00729      78461.137    
    293000   101.60241      78372.335    
    294000   99.760116      78294.142    
    295000   100.49479      78443.1      
    296000   100.5952       78567.556    
    297000   97.900474      78559.065    
    298000   98.69839       78516.287    
    299000   98.707558      78247.167    
    300000   98.268989      78478.612    
    301000   97.791821      78380.389    
    302000   99.68142       78430.297    
    303000   100.04584      78341.757    
    304000   102.57276      78401.028    
    305000   99.424787      78427.444    
    306000   100.63291      78483.429    
    307000   100.08547      78407.978    
    308000   102.21651      78307.924    
    309000   99.887556      78296.238    
    310000   98.859233      78411.871    
    311000   100.61662      78300.275    
    312000   100.09896      78224.978    
    313000   98.472751      78472.558    
    314000   99.037752      78185.244    
    315000   99.175315      78476.093    
    316000   96.471454      78389.301    
    317000   100.69443      78396.994    
    318000   98.56976       78403.351    
    319000   99.975151      78280.347    
    320000   99.517626      78064.089    
    321000   100.51605      78465.269    
    322000   100.33991      78271.46     
    323000   102.64799      78416.414    
    324000   99.208377      78173.564    
    325000   98.090884      78405.274    
    326000   97.91633       78529.78     
    327000   99.034691      78403.727    
    328000   98.020301      78083.373    
    329000   99.728845      78504.655    
    330000   98.850715      78218.854    
    331000   100.31503      78552.298    
    332000   97.932659      78049.034    
    333000   98.307099      78202.832    
    334000   99.62914       78317.154    
    335000   99.186945      78324.906    
    336000   101.244        78458.665    
    337000   101.15493      78388.592    
    338000   102.82249      78448.946    
    339000   99.347068      78404.661    
    340000   103.87492      78517.582    
    341000   98.529338      78335.255    
    342000   101.23501      78185.496    
    343000   102.20331      78395.91     
    344000   99.048702      78471.789    
    345000   98.368883      78467.448    
    346000   101.69849      78678.804    
    347000   101.01094      78515.882    
    348000   100.87656      78382.938    
    349000   101.26623      78230.05     
    350000   100.67625      78425.5      
    351000   100.48505      78452.998    
    352000   100.92042      78359.633    
    353000   100.43912      78434.524    
    354000   99.617132      78485.85     
    355000   100.26415      78384.012    
    356000   101.39457      78325.436    
    357000   102.29672      78338.929    
    358000   97.658706      78503.623    
    359000   101.73428      78266.521    
    360000   97.170165      78277.434    
    361000   99.918964      78534.307    
    362000   102.56927      78386.873    
    363000   98.895115      78411.202    
    364000   98.363833      78230.523    
    365000   102.21473      78280.227    
    366000   96.53695       78382.409    
    367000   100.99488      78323.469    
    368000   99.466999      78357.388    
    369000   98.985575      78303.582    
    370000   101.11278      78397.221    
    371000   98.849712      78470.413    
    372000   100.04734      78267.223    
    373000   96.715875      78269.018    
    374000   99.115338      78435.237    
    375000   100.05551      78388.118    
    376000   98.254702      78663.526    
    377000   96.705712      78211.378    
    378000   97.479023      78281.149    
    379000   97.755497      78320.322    
    380000   100.94522      78440.249    
    381000   97.922206      78217.357    
    382000   99.568674      78435.222    
    383000   99.191808      78393.891    
    384000   98.60425       78442.491    
    385000   99.410016      78393.556    
    386000   99.945807      78500.389    
    387000   98.545115      78264.451    
    388000   100.1489       78336.776    
    389000   95.536987      78327.132    
    390000   102.97369      78398.167    
    391000   99.911554      78395.003    
    392000   98.680362      78485.175    
    393000   97.229934      78270.855    
    394000   98.175448      78403.23     
    395000   96.875087      78358.866    
    396000   99.024065      78414.746    
    397000   98.938068      78575.223    
    398000   97.704568      78416.498    
    399000   100.28656      78368.301    
    400000   96.621498      78475.261    
    401000   99.734512      78400.803    
    402000   97.652725      78440.034    
    403000   100.37594      78363.619    
    404000   101.43407      78431.879    
    405000   98.498646      78423.588    
    406000   97.832805      78381.256    
    407000   100.24752      78449.125    
    408000   99.377917      78441.934    
    409000   101.09648      78444.965    
    410000   104.40946      78494.421    
    411000   99.181674      78579.75     
    412000   97.084189      78413.254    
    413000   100.42443      78442.386    
    414000   97.293572      78478.51     
    415000   98.988967      78658.068    
    416000   99.918261      78485.8      
    417000   99.577514      78449.751    
    418000   99.662955      78408.969    
    419000   103.32592      78581.037    
    420000   102.87902      78658.19     
    421000   100.95581      78514.256    
    422000   99.442743      78652.43     
    423000   98.267062      78512.649    
    424000   101.98525      78422.268    
    425000   100.84354      78511.914    
    426000   99.480153      78544.667    
    427000   100.42334      78613.92     
    428000   98.615466      78642.819    
    429000   97.804244      78496.295    
    430000   98.947288      78348.632    
    431000   100.31189      78396.782    
    432000   98.911525      78584.682    
    433000   97.809732      78766.041    
    434000   101.26429      78460.078    
    435000   98.571588      78333.376    
    436000   100.61336      78458.234    
    437000   101.81267      78476.323    
    438000   99.737681      78492.58     
    439000   103.14083      78577.836    
    440000   99.496915      78579.362    
    441000   96.89108       78185.054    
    442000   102.6056       78379.422    
    443000   99.602884      78457.887    
    444000   97.953287      78287.987    
    445000   100.5828       78413.499    
    446000   103.00672      78642.28     
    447000   97.399438      78393.399    
    448000   99.667922      78412.065    
    449000   104.80338      78329.168    
    450000   99.910166      78279.418    
    451000   98.741577      78467.783    
    452000   102.14279      78509.242    
    453000   99.048411      78442.61     
    454000   101.60358      78285.795    
    455000   95.198455      78356.836    
    456000   102.16909      78489.346    
    457000   100.73182      78530.999    
    458000   99.844558      78204.908    
    459000   97.773683      78399.003    
    460000   103.42111      78275.039    
    461000   96.514544      78270.226    
    462000   100.54472      78322.585    
    463000   95.638735      78393.285    
    464000   99.570986      78434.271    
    465000   98.952249      78586.715    
    466000   100.78141      78459.592    
    467000   98.249704      78450.654    
    468000   106.95903      78133.669    
    469000   98.634333      78373.65     
    470000   99.477188      78403.572    
    471000   94.866603      78467.78     
    472000   98.463982      78542.706    
    473000   100.90883      78434.131    
    474000   102.84351      78297.243    
    475000   98.076528      78246.567    
    476000   103.08956      78528.477    
    477000   96.20893       78624.704    
    478000   100.34966      78332.925    
    479000   101.38123      78359.28     
    480000   99.248801      78203.521    
    481000   99.863423      78422.219    
    482000   96.689111      78501.739    
    483000   100.91218      78615.4      
    484000   101.38412      78582.887    
    485000   100.58215      78545.206    
    486000   107.7428       78410.091    
    487000   101.47079      78402.37     
    488000   101.95276      78359.266    
    489000   95.780953      78708.046    
    490000   99.417844      78383.39     
    491000   102.71967      78471.706    
    492000   100.78169      78395.773    
    493000   97.778175      78388.882    
    494000   100.59677      78483.762    
    495000   100.48724      78417.822    
    496000   101.23404      78715.673    
    497000   101.12956      78406.015    
    498000   99.102015      78383.746    
    499000   101.1948       78383.986    
    500000   97.581453      78271.166    
    501000   100.74508      78536.076    
    502000   99.224144      78484.987    
    503000   99.06178       78630.969    
    504000   99.717596      78377.912    
    505000   98.283591      78424.627    
    506000   98.366255      78373.693    
    507000   99.546525      78705.387    
    508000   98.405451      78555.164    
    509000   100.70156      78493.924    
    510000   98.843757      78532.51     
    511000   99.545611      78570.282    
    512000   100.20187      78421.931    
    513000   99.135636      78389.729    
    514000   101.37909      78468.143    
    515000   101.19216      78641.286    
    516000   100.84042      78571.922    
    517000   100.40815      78406.919    
    518000   99.61353       78342.013    
    519000   101.33093      78373.886    
    520000   99.80479       78723.743    
    521000   100.18844      78575.152    
    522000   101.95305      78279.93     
    523000   101.35001      78140.957    
    524000   98.758414      78422.261    
    525000   99.784908      78417.223    
    526000   98.969962      78596.972    
    527000   104.74784      78539.999    
    528000   99.34625       78403.864    
    529000   99.775894      78368.205    
    530000   99.190647      78487.483    
    531000   98.004561      78465.58     
    532000   103.87165      78377.756    
    533000   98.855393      78500.996    
    534000   101.93733      78273.604    
    535000   102.32012      78332.466    
    536000   103.57087      78429.154    
    537000   95.641911      78402.34     
    538000   97.56196       78539.337    
    539000   99.953814      78592.818    
    540000   100.73148      78278.654    
    541000   98.255168      78336.336    
    542000   104.29429      78348.578    
    543000   101.61424      78415.963    
    544000   98.382251      78518.537    
    545000   100.41305      78382.222    
    546000   98.919778      78430.526    
    547000   98.290732      78528.14     
    548000   100.76195      78332.032    
    549000   103.64278      78300.408    
    550000   100.06661      78311.809    
    551000   96.928511      78407.481    
    552000   101.88278      78373.326    
    553000   100.51293      78412.211    
    554000   101.39656      78390.143    
    555000   98.739128      78275.666    
    556000   101.64354      78259.989    
    557000   100.1403       78649.941    
    558000   99.284046      78276.008    
    559000   95.781715      78217.806    
    560000   96.869662      78438.958    
    561000   101.87303      78390.923    
    562000   99.330721      78526.115    
    563000   104.0519       78518.243    
    564000   100.25525      78275.251    
    565000   101.26534      78499.792    
    566000   96.924612      78600.6      
    567000   98.602854      78348.751    
    568000   104.05074      78376.569    
    569000   95.779609      78479.576    
    570000   99.841344      78295.263    
    571000   102.04593      78518.649    
    572000   98.376754      78414.985    
    573000   100.23585      78518.652    
    574000   96.443911      78235.725    
    575000   98.8029        78184.744    
    576000   101.75548      78366.809    
    577000   102.15561      78182.188    
    578000   99.876124      78045.82     
    579000   94.774759      78353.192    
    580000   105.32794      78412.217    
    581000   102.12568      78191.857    
    582000   103.38018      78359.979    
    583000   103.75587      78518.585    
    584000   96.964648      78202.763    
    585000   100.94661      78313.08     
    586000   99.716468      78328.008    
    587000   96.607525      78324.207    
    588000   100.0658       78454.375    
    589000   100.58881      78322.61     
    590000   99.323513      78364.364    
    591000   103.82415      78253.566    
    592000   100.01933      78154.503    
    593000   95.568909      78456.814    
    594000   99.483402      78168.043    
    595000   101.61781      78504.326    
    596000   97.348165      78427.763    
    597000   96.077389      78021.629    
    598000   98.430317      78078.335    
    599000   95.881037      78300.551    
    600000   99.054862      78332.842    
Loop time of 253.633 on 8 procs for 600000 steps with 1520 atoms

Performance: 204.390 ns/day, 0.117 hours/ns, 2365.623 timesteps/s, 3.596 Matom-step/s
99.7% CPU use with 8 MPI tasks x no OpenMP threads

MPI task timing breakdown:
Section |  min time  |  avg time  |  max time  |%varavg| %total
---------------------------------------------------------------
Pair    | 110.79     | 114.18     | 119.9      |  27.3 | 45.02
Bond    | 43.494     | 44.162     | 45.018     |   7.2 | 17.41
Neigh   | 4.0919     | 4.1245     | 4.1508     |   0.8 |  1.63
Comm    | 62.505     | 68.806     | 72.537     |  37.6 | 27.13
Output  | 0.0072605  | 0.0082685  | 0.01304    |   2.0 |  0.00
Modify  | 19.317     | 19.682     | 19.947     |   4.3 |  7.76
Other   |            | 2.672      |            |       |  1.05

Nlocal:            190 ave         197 max         184 min
Histogram: 1 0 1 4 0 0 0 0 0 2
Nghost:           2615 ave        2621 max        2607 min
Histogram: 1 1 0 0 0 1 1 3 0 1
Neighs:        20931.9 ave       21824 max       20114 min
Histogram: 1 0 2 1 2 0 0 0 0 2

Total # of neighbors = 167455
Ave neighs/atom = 110.16776
Ave special neighs/atom = 6.7157895
Neighbor list builds = 4454
Dangerous builds = 0

unfix           1

print "All done!"
All done!
clear
next t
jump in.IRMOF-10
#========================= List of variables =========================#
variable        t  index 100 200 300 400 500			# Temperature in Kelvin
variable        p  index 1			# Pressure in atm
variable        dt         equal 1.00
variable        pdamp      equal 1000*${dt}
variable        pdamp      equal 1000*1
variable        tdamp      equal 100*${dt}
variable        tdamp      equal 100*1
variable        s  index 1					# Time step
variable        k  index 10000				# snapshots interval
variable        d1 index 200000			# NVT time (200 ns)
variable        d2 index 200000			# NPT Equilibration time (400 ps)
variable        d3 index 600000			# NPT Production time (1 ns)

#========================== Force Field  =============================#



log             log.IRMOF-10 append
units           real
atom_style      full
boundary        p p p

pair_style      lj/cut 12.500
bond_style      harmonic
angle_style     hybrid fourier cosine/periodic
dihedral_style  harmonic
improper_style  fourier

pair_modify     tail yes mix arithmetic
dielectric      1.0
special_bonds   lj/coul 0.0 0.0 1.0
box tilt        large

The 'box' command has been removed and will be ignored

read_data       data.IRMOF-10
Reading data file ...
  triclinic box = (0 0 0) to (48.622 42.107887 39.699697) with tilt (24.311 24.311 14.035962)
WARNING: Triclinic box skew is large. LAMMPS will run inefficiently. (../domain.cpp:220)
  2 by 2 by 2 MPI processor grid
  reading atoms ...
  1520 atoms
  scanning bonds ...
  4 = max bonds/atom
  scanning angles ...
  6 = max angles/atom
  scanning dihedrals ...
  8 = max dihedrals/atom
  scanning impropers ...
  3 = max impropers/atom
  reading bonds ...
  1840 bonds
  reading angles ...
  3264 angles
  reading dihedrals ...
  4416 dihedrals
  reading impropers ...
  2592 impropers
Finding 1-2 1-3 1-4 neighbors ...
  special bond factors lj:    0        0        1       
  special bond factors coul:  0        0        1       
     4 = max # of 1-2 neighbors
    12 = max # of 1-3 neighbors
    16 = max # of special neighbors
  special bonds CPU = 0.000 seconds
  read_data CPU = 0.030 seconds

#### Atom Groupings ####
group           fram     id   1:1520
1520 atoms in group fram
#### END Atom Groupings ####


#############################  Equilibration  ###################################
thermo_style 	custom step temp vol
minimize        0.0 1.0e-3 1000 1000
Generated 10 of 10 mixed pair_coeff terms from arithmetic mixing rule
Neighbor list info ...
  update: every = 1 steps, delay = 0 steps, check = yes
  max neighbors/atom: 2000, page size: 100000
  master list distance cutoff = 14.5
  ghost atom cutoff = 14.5
  binsize = 7.25, bins = 14 8 6
  1 neighbor lists, perpetual/occasional/extra = 1 0 0
  (1) pair lj/cut, perpetual
      attributes: half, newton on
      pair build: half/bin/newton/tri
      stencil: half/bin/3d/tri
      bin: standard
WARNING: Inconsistent image flags (../domain.cpp:815)
Per MPI rank memory allocation (min/avg/max) = 13.75 | 13.75 | 13.75 Mbytes
   Step          Temp          Volume    
         0   0              81279.956    
        34   0              81279.956    
Loop time of 0.0326074 on 8 procs for 34 steps with 1520 atoms

99.6% CPU use with 8 MPI tasks x no OpenMP threads

Minimization stats:
  Stopping criterion = force tolerance
  Energy initial, next-to-last, final = 
      10947.3604104234   2931.60877592592   2931.60877592542
  Force two-norm initial, final = 4709.1182 0.00083930791
  Force max component initial, final = 200.20419 4.2203877e-05
  Final line search alpha, max atom move = 1 4.2203877e-05
  Iterations, force evaluations = 34 68

MPI task timing breakdown:
Section |  min time  |  avg time  |  max time  |%varavg| %total
---------------------------------------------------------------
Pair    | 0.019246   | 0.019443   | 0.019648   |   0.1 | 59.63
Bond    | 0.0046911  | 0.0047453  | 0.0047919  |   0.1 | 14.55
Neigh   | 0          | 0          | 0          |   0.0 |  0.00
Comm    | 0.0070137  | 0.0072807  | 0.0075497  |   0.2 | 22.33
Output  | 0          | 0          | 0          |   0.0 |  0.00
Modify  | 0          | 0          | 0          |   0.0 |  0.00
Other   |            | 0.001138   |            |       |  3.49

Nlocal:            190 ave         190 max         190 min
Histogram: 8 0 0 0 0 0 0 0 0 0
Nghost:           2614 ave        2614 max        2614 min
Histogram: 8 0 0 0 0 0 0 0 0 0
Neighs:          20544 ave       20544 max       20544 min
Histogram: 8 0 0 0 0 0 0 0 0 0

Total # of neighbors = 164352
Ave neighs/atom = 108.12632
Ave special neighs/atom = 6.7157895
Neighbor list builds = 0
Dangerous builds = 0
velocity        all create ${t} 331989 rot yes dist gaussian
velocity        all create 200 331989 rot yes dist gaussian

fix             1 all nvt temp ${t} ${t} ${tdamp}
fix             1 all nvt temp 200 ${t} ${tdamp}
fix             1 all nvt temp 200 200 ${tdamp}
fix             1 all nvt temp 200 200 100
thermo          1000
run             ${d1}
run             200000
Generated 10 of 10 mixed pair_coeff terms from arithmetic mixing rule
WARNING: Inconsistent image flags (../domain.cpp:815)
Per MPI rank memory allocation (min/avg/max) = 12.63 | 12.63 | 12.63 Mbytes
   Step          Temp          Volume    
        34   200            81279.956    
      1000   198.78934      81279.956    
      2000   204.79833      81279.956    
      3000   197.86496      81279.956    
      4000   207.47122      81279.956    
      5000   195.22044      81279.956    
      6000   206.59767      81279.956    
      7000   203.84507      81279.956    
      8000   201.08931      81279.956    
      9000   202.47995      81279.956    
     10000   203.82893      81279.956    
     11000   203.02432      81279.956    
     12000   199.45215      81279.956    
     13000   197.79383      81279.956    
     14000   199.30995      81279.956    
     15000   202.95274      81279.956    
     16000   200.58425      81279.956    
     17000   197.69659      81279.956    
     18000   199.2045       81279.956    
     19000   200.9222       81279.956    
     20000   205.84308      81279.956    
     21000   192.73691      81279.956    
     22000   198.99368      81279.956    
     23000   197.22357      81279.956    
     24000   201.48611      81279.956    
     25000   202.10567      81279.956    
     26000   197.92785      81279.956    
     27000   195.86078      81279.956    
     28000   198.91056      81279.956    
     29000   203.55359      81279.956    
     30000   198.74106      81279.956    
     31000   203.17468      81279.956    
     32000   204.08507      81279.956    
     33000   193.31926      81279.956    
     34000   207.54323      81279.956    
     35000   201.53585      81279.956    
     36000   196.84657      81279.956    
     37000   202.33913      81279.956    
     38000   196.22263      81279.956    
     39000   200.05597      81279.956    
     40000   208.37878      81279.956    
     41000   198.26585      81279.956    
     42000   197.11025      81279.956    
     43000   208.9545       81279.956    
     44000   200.70242      81279.956    
     45000   197.55713      81279.956    
     46000   195.24936      81279.956    
     47000   199.07092      81279.956    
     48000   208.29597      81279.956    
     49000   206.86365      81279.956    
     50000   200.98357      81279.956    
     51000   194.15129      81279.956    
     52000   204.70064      81279.956    
     53000   197.20863      81279.956    
     54000   194.11701      81279.956    
     55000   192.10255      81279.956    
     56000   203.87476      81279.956    
     57000   198.91299      81279.956    
     58000   197.68478      81279.956    
     59000   199.23803      81279.956    
     60000   200.14121      81279.956    
     61000   193.87483      81279.956    
     62000   203.36701      81279.956    
     63000   198.71717      81279.956    
     64000   208.0939       81279.956    
     65000   199.1751       81279.956    
     66000   202.82709      81279.956    
     67000   202.12202      81279.956    
     68000   204.32624      81279.956    
     69000   194.46228      81279.956    
     70000   202.32629      81279.956    
     71000   198.88341      81279.956    
     72000   197.89615      81279.956    
     73000   201.87351      81279.956    
     74000   202.17824      81279.956    
     75000   199.66621      81279.956    
     76000   197.22706      81279.956    
     77000   199.25828      81279.956    
     78000   194.39727      81279.956    
     79000   203.02059      81279.956    
     80000   201.7539       81279.956    
     81000   195.14161      81279.956    
     82000   200.78751      81279.956    
     83000   193.14996      81279.956    
     84000   198.69996      81279.956    
     85000   197.61954      81279.956    
     86000   198.49448      81279.956    
     87000   197.35314      81279.956    
     88000   205.96863      81279.956    
     89000   196.66787      81279.956    
     90000   206.70018      81279.956    
     91000   193.22404      81279.956    
     92000   196.18815      81279.956    
     93000   203.01185      81279.956    
     94000   202.52536      81279.956    
     95000   201.00338      81279.956    
     96000   203.71403      81279.956    
     97000   197.28522      81279.956    
     98000   202.77546      81279.956    
     99000   194.51931      81279.956    
    100000   212.31588      81279.956    
    101000   206.57791      81279.956    
    102000   195.31289      81279.956    
    103000   201.14772      81279.956    
    104000   201.34394      81279.956    
    105000   203.40721      81279.956    
    106000   203.85579      81279.956    
    107000   199.89874      81279.956    
    108000   210.66873      81279.956    
    109000   201.94583      81279.956    
    110000   193.76358      81279.956    
    111000   202.67914      81279.956    
    112000   200.05972      81279.956    
    113000   198.00591      81279.956    
    114000   201.00983      81279.956    
    115000   201.77302      81279.956    
    116000   198.34104      81279.956    
    117000   201.88732      81279.956    
    118000   202.08208      81279.956    
    119000   195.43725      81279.956    
    120000   204.95475      81279.956    
    121000   205.5216       81279.956    
    122000   202.73053      81279.956    
    123000   195.94837      81279.956    
    124000   199.47079      81279.956    
    125000   206.64676      81279.956    
    126000   198.84971      81279.956    
    127000   206.24909      81279.956    
    128000   193.40466      81279.956    
    129000   204.38613      81279.956    
    130000   196.0316       81279.956    
    131000   206.91153      81279.956    
    132000   192.33436      81279.956    
    133000   204.22781      81279.956    
    134000   201.94009      81279.956    
    135000   198.15138      81279.956    
    136000   201.26603      81279.956    
    137000   202.56541      81279.956    
    138000   198.31388      81279.956    
    139000   199.08748      81279.956    
    140000   203.85262      81279.956    
    141000   198.36553      81279.956    
    142000   192.34207      81279.956    
    143000   200.18642      81279.956    
    144000   201.28632      81279.956    
    145000   203.74013      81279.956    
    146000   203.04223      81279.956    
    147000   195.9569       81279.956    
    148000   207.46803      81279.956    
    149000   198.05631      81279.956    
    150000   197.69823      81279.956    
    151000   198.48572      81279.956    
    152000   201.50655      81279.956    
    153000   207.95202      81279.956    
    154000   200.50492      81279.956    
    155000   207.25757      81279.956    
    156000   196.04989      81279.956    
    157000   198.45957      81279.956    
    158000   199.94284      81279.956    
    159000   196.82868      81279.956    
    160000   201.67868      81279.956    
    161000   193.40804      81279.956    
    162000   204.03365      81279.956    
    163000   201.87707      81279.956    
    164000   201.30813      81279.956    
    165000   203.0216       81279.956    
    166000   206.89747      81279.956    
    167000   196.6977       81279.956    
    168000   201.03523      81279.956    
    169000   203.46033      81279.956    
    170000   197.4555       81279.956    
    171000   200.11156      81279.956    
    172000   206.31059      81279.956    
    173000   189.33588      81279.956    
    174000   198.32584      81279.956    
    175000   212.83165      81279.956    
    176000   195.11071      81279.956    
    177000   202.16153      81279.956    
    178000   197.597        81279.956    
    179000   201.37623      81279.956    
    180000   204.15223      81279.956    
    181000   202.25316      81279.956    
    182000   202.94243      81279.956    
    183000   195.58652      81279.956    
    184000   198.28947      81279.956    
    185000   201.49173      81279.956    
    186000   200.79151      81279.956    
    187000   200.97435      81279.956    
    188000   198.87986      81279.956    
    189000   200.65319      81279.956    
    190000   200.07494      81279.956    
    191000   195.58506      81279.956    
    192000   192.56152      81279.956    
    193000   205.72423      81279.956    
    194000   195.85706      81279.956    
    195000   197.44953      81279.956    
    196000   200.99749      81279.956    
    197000   198.69413      81279.956    
    198000   199.79318      81279.956    
    199000   201.93501      81279.956    
    200000   198.77695      81279.956    
    200034   203.20573      81279.956    
Loop time of 71.7675 on 8 procs for 200000 steps with 1520 atoms

Performance: 240.777 ns/day, 0.100 hours/ns, 2786.776 timesteps/s, 4.236 Matom-step/s
99.7% CPU use with 8 MPI tasks x no OpenMP threads

MPI task timing breakdown:
Section |  min time  |  avg time  |  max time  |%varavg| %total
---------------------------------------------------------------
Pair    | 33.798     | 34.363     | 35.298     |   8.1 | 47.88
Bond    | 11.247     | 11.375     | 11.542     |   3.3 | 15.85
Neigh   | 1.4717     | 1.4925     | 1.508      |   0.9 |  2.08
Comm    | 20.6       | 22.007     | 22.953     |  17.3 | 30.66
Output  | 0.0017663  | 0.0026373  | 0.0080803  |   4.0 |  0.00
Modify  | 1.2852     | 1.6494     | 1.9734     |  21.9 |  2.30
Other   |            | 0.878      |            |       |  1.22

Nlocal:            190 ave         194 max         188 min
Histogram: 1 3 0 2 0 1 0 0 0 1
Nghost:           2614 ave        2616 max        2610 min
Histogram: 1 0 0 0 0 1 2 0 3 1
Neighs:        20371.6 ave       20917 max       20205 min
Histogram: 4 1 1 0 1 0 0 0 0 1

Total # of neighbors = 162973
Ave neighs/atom = 107.21908
Ave special neighs/atom = 6.7157895
Neighbor list builds = 1620
Dangerous builds = 0
unfix		1

fix             1 all npt temp ${t} ${t} ${tdamp} tri ${p} ${p} ${pdamp}
fix             1 all npt temp 200 ${t} ${tdamp} tri ${p} ${p} ${pdamp}
fix             1 all npt temp 200 200 ${tdamp} tri ${p} ${p} ${pdamp}
fix             1 all npt temp 200 200 100 tri ${p} ${p} ${pdamp}
fix             1 all npt temp 200 200 100 tri 1 ${p} ${pdamp}
fix             1 all npt temp 200 200 100 tri 1 1 ${pdamp}
fix             1 all npt temp 200 200 100 tri 1 1 1000
thermo          1000
run             ${d2}
run             200000
Generated 10 of 10 mixed pair_coeff terms from arithmetic mixing rule
WARNING: Inconsistent image flags (../domain.cpp:815)
Per MPI rank memory allocation (min/avg/max) = 12.64 | 12.64 | 12.64 Mbytes
   Step          Temp          Volume    
    200034   203.20573      81279.956    
    201000   197.93981      78191.005    
    202000   198.53089      77781.694    
    203000   192.20209      78410.555    
    204000   199.2455       78098.681    
    205000   201.42049      78208.215    
    206000   199.06822      78006.617    
    207000   203.92082      77928.31     
    208000   200.45508      77899.971    
    209000   208.37168      77781.231    
    210000   198.02462      77859.901    
    211000   190.98836      77765.146    
    212000   196.01516      77670.177    
    213000   205.99169      77992.524    
    214000   197.27757      77849.054    
    215000   202.9943       77948.673    
    216000   201.79623      77935.468    
    217000   193.36297      77914.293    
    218000   194.77834      77880.225    
    219000   196.79833      78083.897    
    220000   195.17464      78279.146    
    221000   198.96793      77882.2      
    222000   194.25469      77879.267    
    223000   195.87874      78106.127    
    224000   204.07397      78175.863    
    225000   196.57455      77937.152    
    226000   199.27276      78142.95     
    227000   208.7846       78275.668    
    228000   198.38441      78241.924    
    229000   190.44495      78092.559    
    230000   200.63083      77962.471    
    231000   202.63747      77872.287    
    232000   200.12412      78082.075    
    233000   196.86845      78182.631    
    234000   201.71496      78105.538    
    235000   192.56719      78199.83     
    236000   204.28144      78283.66     
    237000   206.26868      78130.851    
    238000   199.68039      78003.971    
    239000   202.12758      78024.118    
    240000   201.73566      78279.381    
    241000   198.74766      77980.232    
    242000   193.26331      77852.732    
    243000   192.05564      78160.294    
    244000   194.59547      77855.382    
    245000   209.77341      78185.325    
    246000   200.85519      77877.26     
    247000   195.5763       78114.702    
    248000   205.13071      78013.402    
    249000   197.36573      77868.865    
    250000   205.97144      77937.411    
    251000   199.18247      78063.173    
    252000   204.97551      78079.041    
    253000   197.26745      78395.749    
    254000   199.28923      78035.941    
    255000   204.77708      77789.124    
    256000   198.53234      77895.149    
    257000   201.72542      78177.409    
    258000   198.49082      77855.056    
    259000   208.51859      77964.04     
    260000   191.44867      77904.62     
    261000   205.23773      77888.712    
    262000   202.57233      77810.069    
    263000   194.40392      78014.016    
    264000   205.09579      77771.381    
    265000   193.70043      78223.277    
    266000   196.46383      77884.032    
    267000   199.52678      78275.602    
    268000   204.88435      78059.527    
    269000   196.02247      78155.3      
    270000   197.87577      78168.693    
    271000   202.73621      78249.401    
    272000   200.84156      78281.522    
    273000   201.74062      78114.71     
    274000   194.90852      78112.088    
    275000   204.09278      78015.471    
    276000   204.05501      78307.353    
    277000   206.24965      78237.287    
    278000   202.68254      78103.371    
    279000   202.32412      78113.164    
    280000   200.75514      78083.774    
    281000   198.46316      78101.159    
    282000   200.78921      78453.32     
    283000   197.0509       77974.849    
    284000   200.58283      78144.267    
    285000   192.09762      78081.18     
    286000   199.24125      77931.958    
    287000   199.5477       78412.489    
    288000   209.15562      78161.344    
    289000   203.29099      78208.334    
    290000   200.97702      78315.179    
    291000   200.32669      77945.403    
    292000   196.83952      78134.04     
    293000   198.77835      78149.11     
    294000   208.81906      77893.078    
    295000   200.35518      78075.202    
    296000   201.21505      78295.512    
    297000   200.28088      78028.672    
    298000   200.20834      78179.084    
    299000   205.89227      77702.661    
    300000   199.2488       78141.259    
    301000   202.57877      77836.633    
    302000   202.72089      77882.383    
    303000   207.4485       77903.16     
    304000   192.23828      78161.305    
    305000   196.93324      77959.607    
    306000   201.98872      77971.773    
    307000   204.87056      78065.726    
    308000   201.21706      77869.935    
    309000   200.62507      78000.644    
    310000   204.06987      77684.648    
    311000   199.51941      78051.923    
    312000   195.01781      77961.389    
    313000   196.35975      78107.949    
    314000   204.45914      78010.437    
    315000   196.07534      77757.599    
    316000   201.46342      78042.44     
    317000   202.69816      78099.968    
    318000   198.86419      78014.515    
    319000   189.98507      78351.953    
    320000   206.82775      77979.977    
    321000   201.36931      77790.123    
    322000   208.23847      77920.656    
    323000   197.16081      78115.437    
    324000   195.86813      77888.034    
    325000   203.32328      78004.764    
    326000   201.1062       77969.529    
    327000   201.62863      78162.935    
    328000   196.77017      77577.29     
    329000   201.28699      77992.28     
    330000   194.00496      78008.864    
    331000   203.51957      78153.158    
    332000   203.0116       78038.386    
    333000   193.64194      77931.004    
    334000   195.84646      77678.653    
    335000   201.63037      77882.455    
    336000   195.21985      78093.677    
    337000   199.0989       78168.952    
    338000   200.80644      77748.466    
    339000   195.18603      78142.108    
    340000   207.05374      78024.352    
    341000   199.19277      77985.53     
    342000   201.99523      77875.944    
    343000   194.77173      77815.075    
    344000   193.66444      77990.608    
    345000   202.12604      78205.271    
    346000   198.02156      77829.203    
    347000   201.28976      78071.732    
    348000   207.22693      78202.484    
    349000   192.31772      78141.794    
    350000   206.46225      77969.309    
    351000   206.52795      78179.154    
    352000   198.18182      77910.512    
    353000   200.13573      78186.904    
    354000   195.97926      77851.669    
    355000   201.72093      78259.26     
    356000   198.97377      78232.125    
    357000   204.22492      78524.359    
    358000   194.93615      78029.857    
    359000   205.86543      77955.399    
    360000   209.04157      78068.934    
    361000   200.0542       78325.067    
    362000   205.3974       78220.523    
    363000   201.99213      78111.791    
    364000   190.78445      78191.699    
    365000   197.05867      78022.237    
    366000   201.71718      78217.837    
    367000   191.06742      77933.99     
    368000   195.9682       77691.78     
    369000   201.6318       78084.886    
    370000   196.47452      77604.768    
    371000   200.41872      77739.384    
    372000   195.67369      78109.247    
    373000   198.21076      78229.738    
    374000   198.34439      77970.51     
    375000   202.632        77961.678    
    376000   195.94697      77872.657    
    377000   203.84083      77959.673    
    378000   202.04267      77880.804    
    379000   185.83078      78334.371    
    380000   203.51378      78339.62     
    381000   195.36325      77917.885    
    382000   196.37198      78130.3      
    383000   205.47085      77655.872    
    384000   198.62933      78168.172    
    385000   196.84281      78021.213    
    386000   197.13635      77943.385    
    387000   200.66027      77785.498    
    388000   192.81698      77832.62     
    389000   200.89279      77683.804    
    390000   198.03335      78106.057    
    391000   199.42286      78019.305    
    392000   199.74125      78156.386    
    393000   202.18757      77940.735    
    394000   206.96536      77825.221    
    395000   201.75248      78296.548    
    396000   200.95654      78373.538    
    397000   196.95504      78103.548    
    398000   201.59143      77847.887    
    399000   200.26906      77927.871    
    400000   194.66679      77989.508    
    400034   194.58692      77930.831    
Loop time of 85.128 on 8 procs for 200000 steps with 1520 atoms

Performance: 202.989 ns/day, 0.118 hours/ns, 2349.404 timesteps/s, 3.571 Matom-step/s
99.7% CPU use with 8 MPI tasks x no OpenMP threads

MPI task timing breakdown:
Section |  min time  |  avg time  |  max time  |%varavg| %total
---------------------------------------------------------------
Pair    | 37.368     | 38.239     | 39.345     |  10.2 | 44.92
Bond    | 14.442     | 14.7       | 14.908     |   4.1 | 17.27
Neigh   | 2.3748     | 2.3852     | 2.3955     |   0.5 |  2.80
Comm    | 22.179     | 23.604     | 24.752     |  16.9 | 27.73
Output  | 0.0018852  | 0.0022959  | 0.0043439  |   1.6 |  0.00
Modify  | 5.1279     | 5.2706     | 5.392      |   3.6 |  6.19
Other   |            | 0.9274     |            |       |  1.09

Nlocal:            190 ave         196 max         183 min
Histogram: 1 0 0 3 1 0 0 0 1 2
Nghost:         2616.5 ave        2624 max        2611 min
Histogram: 3 0 0 0 0 2 2 0 0 1
Neighs:        21025.9 ave       21906 max       20234 min
Histogram: 1 1 1 1 1 0 0 1 1 1

Total # of neighbors = 168207
Ave neighs/atom = 110.6625
Ave special neighs/atom = 6.7157895
Neighbor list builds = 2528
Dangerous builds = 0

reset_timestep  0
#############################  Production ###################################
variable        V       equal vol 		    #Volume variable
variable        a	 	equal cella 		#Lattice variable
variable        b	 	equal cellb 		#Lattice variable
variable        c	 	equal cellc 		#Lattice variable
fix 			4 all ave/time 1 ${d3} ${d3} v_V v_a v_b v_c ave running file results_${t}.txt overwrite
fix 			4 all ave/time 1 600000 ${d3} v_V v_a v_b v_c ave running file results_${t}.txt overwrite
fix 			4 all ave/time 1 600000 600000 v_V v_a v_b v_c ave running file results_${t}.txt overwrite
fix 			4 all ave/time 1 600000 600000 v_V v_a v_b v_c ave running file results_200.txt overwrite
fix 			5 all ave/time 1 10000 10000 v_V v_a v_b v_c file summary_${t}.txt
fix 			5 all ave/time 1 10000 10000 v_V v_a v_b v_c file summary_200.txt
thermo          1000
run             ${d3}
run             600000
Generated 10 of 10 mixed pair_coeff terms from arithmetic mixing rule
WARNING: Inconsistent image flags (../domain.cpp:815)
Per MPI rank memory allocation (min/avg/max) = 12.64 | 12.64 | 12.64 Mbytes
   Step          Temp          Volume    
         0   194.58692      77930.831    
      1000   196.66519      77936.918    
      2000   201.21818      78118.065    
      3000   208.73753      78136.125    
      4000   200.589        78151.097    
      5000   207.5471       77778.345    
      6000   200.48369      77980.444    
      7000   195.8791       78119.357    
      8000   201.30156      78233.174    
      9000   208.90158      78434.098    
     10000   195.96843      77840.961    
     11000   203.19676      78343.231    
     12000   197.3256       78032.007    
     13000   202.79301      78132.312    
     14000   196.78315      77921.336    
     15000   201.80592      77982.696    
     16000   203.08212      78038.665    
     17000   202.13252      77840.082    
     18000   197.58506      77970.079    
     19000   201.60064      78007.779    
     20000   196.33337      77949.029    
     21000   198.05715      77985.387    
     22000   197.08323      77876.991    
     23000   194.08865      77979.943    
[...]
    157000   496.6381       77277.887    
    158000   491.72942      77301.471    
    159000   487.51223      77005.008    
    160000   501.7733       77139        
    161000   510.47169      77141.888    
    162000   501.36278      76962.273    
    163000   486.98503      77025.219    
    164000   481.93623      77248.672    
    165000   498.39613      77181.162    
    166000   500.1815       76893.133    
    167000   495.87264      77332.297    
    168000   503.91336      77519.498    
    169000   503.92241      77385.561    
    170000   519.26013      77178.891    
    171000   489.86108      77426.915    
    172000   514.19038      77115.72     
    173000   509.09628      77318.526    
    174000   488.73427      77131.779    
    175000   518.83262      76935.8      
    176000   499.60482      77321.198    
    177000   515.29803      77094.888    
    178000   497.12246      76652.154    
    179000   497.11218      76682.815    
    180000   503.41986      76959.167    
    181000   494.05974      77210.48     
    182000   477.41061      77344.605    
    183000   502.94777      77213.327    
    184000   480.84743      77437.488    
    185000   482.69722      77108.773    
    186000   516.5637       77152.829    
    187000   488.25474      77349.027    
    188000   492.97208      76709.087    
    189000   512.71226      77239.751    
    190000   517.95976      77343.87     
    191000   474.83084      76858.824    
    192000   479.82827      77159.486    
    193000   491.37148      76891.07     
    194000   489.86802      76823.671    
    195000   526.67162      77029.388    
    196000   505.42243      77220.726    
    197000   496.34551      77062.503    
    198000   500.13731      77237.872    
    199000   515.10136      77086.837    
    200000   495.22672      76875.006    
    201000   519.86286      77387.638    
    202000   493.96387      77114.517    
    203000   498.39394      76830.369    
    204000   505.01936      77305.01     
    205000   489.33483      77446.925    
    206000   503.31773      77414.934    
    207000   525.43886      76941.221    
    208000   520.28672      77555.147    
    209000   494.66659      76657.462    
    210000   502.05013      76777.878    
    211000   507.34033      76823.932    
    212000   505.85224      77336.72     
    213000   496.9074       77085.567    
    214000   502.45987      77438.286    
    215000   507.49613      77310.211    
    216000   494.44629      77409.734    
    217000   491.51797      77183.887    
    218000   501.71851      77005.987    
    219000   500.24849      76881.407    
    220000   505.49674      77415.298    
    221000   496.37488      77330.688    
    222000   501.3323       77536.083    
    223000   495.06802      76967.568    
    224000   503.08686      77314.509    
    225000   496.07139      77142.974    
    226000   486.43415      76946.525    
    227000   480.84435      77346.498    
    228000   496.46506      76826.601    
    229000   502.81252      77348.682    
    230000   501.31318      76449.261    
    231000   519.7487       77271.568    
    232000   482.86584      77201.805    
    233000   508.34622      77388.635    
    234000   508.97835      77124.141    
    235000   487.72822      76835.934    
    236000   499.63934      77502.142    
    237000   500.23129      76618.648    
    238000   492.93789      77437.582    
    239000   510.18988      76900.648    
    240000   488.00172      77384.097    
    241000   504.097        76743.976    
    242000   489.85304      77022.399    
    243000   501.22716      77616.715    
    244000   484.45174      76887.294    
    245000   501.54665      77114.239    
    246000   481.30748      77266.783    
    247000   512.98157      77576.396    
    248000   508.21377      77110.693    
    249000   490.61788      77202.288    
    250000   501.16139      77412.647    
    251000   496.72791      76804.201    
    252000   509.03129      77373.763    
    253000   489.68195      77449.768    
    254000   501.12075      77362.79     
    255000   487.6187       77061.832    
    256000   512.06009      77079.76     
    257000   503.80305      77377.997    
    258000   488.29805      77381.052    
    259000   519.00441      77092.474    
    260000   492.06542      76643.208    
    261000   489.89964      77380.078    
    262000   494.02919      77094.379    
    263000   525.09186      76776.177    
    264000   509.08133      76965.947    
    265000   535.66165      77212.695    
    266000   499.44175      77300.32     
    267000   484.82489      77304.666    
    268000   495.10459      77403.637    
    269000   494.65911      77738.72     
    270000   491.68122      76383.125    
    271000   505.9659       76995.614    
    272000   518.16863      77215.507    
    273000   503.11846      77203.132    
    274000   491.31977      77360.828    
    275000   501.02295      77196.41     
    276000   499.06646      77110.063    
    277000   499.21783      77073.438    
    278000   511.58449      77150.562    
    279000   494.20406      77246.836    
    280000   510.24878      77322.215    
    281000   515.86995      77064.022    
    282000   504.51561      77323.306    
    283000   509.23228      76966.408    
    284000   508.80963      77209.962    
    285000   491.16514      76773.242    
    286000   502.00262      76860.077    
    287000   489.05814      77509.987    
    288000   488.31228      77080.25     
    289000   502.84938      77430.028    
    290000   503.26789      77042.591    
    291000   491.8122       77285.994    
    292000   508.05154      76743.929    
    293000   496.89825      77195.32     
    294000   489.44001      77449.041    
    295000   506.06637      77033.574    
    296000   504.87987      76896.461    
    297000   489.46893      76962.76     
    298000   503.81281      77682.391    
    299000   497.45694      77095.131    
    300000   509.78929      77441.496    
    301000   487.05429      76945.234    
    302000   491.46541      77350.133    
    303000   498.25425      77359.089    
    304000   505.86177      77184.895    
    305000   512.81739      76836.806    
    306000   503.22085      77075.252    
    307000   486.67282      76824.689    
    308000   498.15708      77188.118    
    309000   495.73935      76918.105    
    310000   495.64508      77060.143    
    311000   486.49196      77509.651    
    312000   511.35683      77331.707    
    313000   502.86185      77414.912    
    314000   488.77322      77278.504    
    315000   486.315        77062.989    
    316000   505.80765      77773.622    
    317000   518.63647      76941.403    
    318000   487.94357      77257.623    
    319000   512.54398      77356.01     
    320000   500.18703      77830.992    
    321000   513.91299      77290.878    
    322000   494.74491      76664.716    
    323000   507.21068      77485.23     
    324000   507.08241      77299.087    
    325000   511.1231       77600.301    
    326000   503.26204      76772.02     
    327000   497.84645      77455.08     
    328000   504.15365      76769.983    
    329000   492.30836      77481.018    
    330000   492.73196      76927.722    
    331000   500.33464      77518.25     
    332000   492.00479      77319.225    
    333000   519.8209       77870.529    
    334000   511.57924      77279.081    
    335000   500.21598      77377.398    
    336000   509.12847      77549.835    
    337000   515.75794      77243.981    
    338000   484.81998      77270.174    
    339000   506.94855      77928.074    
    340000   501.48968      77815.922    
    341000   518.61524      76782.312    
    342000   492.25521      77776.601    
    343000   472.51605      77246.359    
    344000   495.49045      76883.544    
    345000   499.63675      77429.092    
    346000   484.92432      76824.961    
    347000   523.19435      77172.557    
    348000   510.03516      77216.607    
    349000   499.30849      77287.796    
    350000   501.18676      77370.135    
    351000   503.23716      77898.583    
    352000   496.90549      76742.491    
    353000   504.8515       77674.153    
    354000   488.95601      76843.537    
    355000   486.81613      77007.311    
    356000   502.81556      76756.181    
    357000   495.36296      76698.854    
    358000   497.63186      77034.501    
    359000   477.56139      77673.553    
    360000   502.72682      77094.857    
    361000   510.03229      77302.166    
    362000   515.37285      77224.065    
    363000   494.47892      77222.933    
    364000   524.30236      77213.149    
    365000   487.73912      77453.45     
    366000   495.0887       76901.883    
    367000   494.5715       77188.196    
    368000   505.75328      77039.998    
    369000   519.90444      76986.832    
    370000   520.45337      77472.164    
    371000   505.64885      77142.793    
    372000   498.52215      77245.494    
    373000   494.24404      77591.031    
    374000   496.70075      76969.622    
    375000   488.82528      77525.743    
    376000   512.11215      76829.015    
    377000   489.0571       77219.665    
    378000   501.23402      76731.242    
    379000   499.63412      77404.855    
    380000   498.1681       76817.121    
    381000   481.18338      77359.466    
    382000   505.85418      77140.368    
    383000   492.53204      76608.297    
    384000   501.94197      77973.233    
    385000   485.24545      77052.299    
    386000   493.32112      77494.208    
    387000   481.88442      76793.296    
    388000   486.17174      77092.254    
    389000   504.73141      77013.762    
    390000   506.13202      76937.662    
    391000   498.59452      77021.789    
    392000   514.53186      77442.25     
    393000   516.55208      77189.423    
    394000   506.34879      76649.546    
    395000   497.83968      76881.363    
    396000   510.18048      77241.401    
    397000   496.05553      77135.023    
    398000   510.64617      77024.101    
    399000   496.79828      76662.683    
    400000   489.88286      76960.574    
    401000   497.16819      76927.089    
    402000   520.7717       77138.452    
    403000   488.67585      77106.101    
    404000   501.8374       77428.357    
    405000   510.25229      77137.763    
    406000   510.28172      76977.942    
    407000   497.03946      77218.188    
    408000   515.46934      76924.299    
    409000   487.8365       77478.682    
    410000   496.17682      77207.588    
    411000   508.18829      77007.592    
    412000   505.84342      77226.861    
    413000   486.94648      77264.877    
    414000   511.49509      77051.106    
    415000   491.55804      77254.705    
    416000   494.76848      77026.284    
    417000   502.81414      76825.929    
    418000   495.50968      77257.866    
    419000   517.17008      77487.241    
    420000   488.07605      77691.634    
    421000   507.9233       77124.279    
    422000   500.95645      77509.219    
    423000   504.63448      77124.938    
    424000   502.21159      77308.141    
    425000   508.37417      77559.977    
    426000   508.08124      77208.457    
    427000   506.19454      77308.74     
    428000   494.54286      77574.996    
    429000   510.21069      77155.305    
    430000   489.58987      77296.105    
    431000   508.82967      77230.822    
    432000   488.1445       77062.781    
    433000   493.27403      77417.595    
    434000   511.23049      76870.925    
    435000   510.25293      77334.252    
    436000   496.79946      77736.401    
    437000   516.18954      77227.041    
    438000   493.0542       77417.011    
    439000   490.74662      76987.689    
    440000   491.93364      77641.172    
    441000   499.61048      77483.652    
    442000   486.62         77347.275    
    443000   501.71053      77403.442    
    444000   502.77697      77111.954    
    445000   503.54263      77464.385    
    446000   487.65688      77415.877    
    447000   517.70793      76936.453    
    448000   496.79365      77025.93     
    449000   495.75727      77501.533    
    450000   496.20422      77063.907    
    451000   496.13477      76739.746    
    452000   501.99325      77052.498    
    453000   484.13877      77518.364    
    454000   492.94445      76806.854    
    455000   499.737        77290.621    
    456000   498.89258      76933.195    
    457000   509.51071      77715.8      
    458000   505.78877      77177.374    
    459000   501.83943      77280.441    
    460000   490.9335       77351.908    
    461000   499.26401      77488.025    
    462000   515.90746      77360.84     
    463000   504.57116      77474.598    
    464000   498.86772      76877.198    
    465000   521.78079      77304.897    
    466000   489.46517      77249.527    
    467000   505.32478      77180.292    
    468000   483.18         77788.459    
    469000   496.90704      77083.622    
    470000   494.76426      76585.059    
    471000   500.64151      77321.019    
    472000   487.13583      77284.033    
    473000   512.62198      76983.868    
    474000   493.45687      77282.387    
    475000   509.37336      77234.877    
    476000   496.65358      77396.538    
    477000   495.23707      77245.613    
    478000   501.56107      76966.579    
    479000   483.3482       77110.858    
    480000   496.64914      77576.307    
    481000   492.56298      76794.28     
    482000   494.70968      76982.356    
    483000   502.04275      77080.572    
    484000   513.35792      77257.235    
    485000   489.98759      76944.847    
    486000   488.43154      76970.639    
    487000   504.61804      77510.689    
    488000   493.7503       77203.295    
    489000   496.95329      77488.996    
    490000   495.08733      77192.91     
    491000   504.05977      77337.482    
    492000   505.43305      77469.706    
    493000   507.23708      76760.879    
    494000   509.73568      77342.34     
    495000   496.9535       77761.523    
    496000   503.85054      76918.936    
    497000   498.70314      77515.154    
    498000   481.47621      77239.314    
    499000   507.28023      77238.116    
    500000   478.69625      77145.399    
    501000   511.76178      76937.185    
    502000   506.66796      77527.761    
    503000   483.30508      77197.711    
    504000   497.84454      77299.21     
    505000   500.1351       77331.853    
    506000   509.40742      77161.874    
    507000   513.64131      77837.678    
    508000   484.69805      76844.824    
    509000   482.08054      77325.076    
    510000   497.01919      77456.863    
    511000   495.98554      77250.5      
    512000   496.83189      77213.657    
    513000   504.40626      77184.91     
    514000   504.19766      77231.984    
    515000   508.39421      77226.483    
    516000   502.98257      76987.862    
    517000   502.25136      76836.846    
    518000   496.84661      77167.918    
    519000   498.47898      77301.246    
    520000   505.56331      77126.407    
    521000   500.84346      77728.352    
    522000   496.75101      77246.888    
    523000   495.09549      77274.086    
    524000   507.11566      77311.993    
    525000   508.43584      77087.122    
    526000   498.68806      76982.595    
    527000   507.02147      77517.805    
    528000   485.86509      76839.245    
    529000   507.96344      77357.758    
    530000   505.44078      76834.167    
    531000   492.20765      77575.512    
    532000   497.32035      77042.685    
    533000   503.44466      77053.225    
    534000   498.87949      77074.983    
    535000   498.30947      77071.232    
    536000   468.71556      76982.971    
    537000   498.481        77186.475    
    538000   486.02762      77569.187    
    539000   506.20842      77332.75     
    540000   525.56706      77152.451    
    541000   488.39877      77118.279    
    542000   506.2213       76964.04     
    543000   502.8798       77206.014    
    544000   500.01436      77013.555    
    545000   498.18293      76696.57     
    546000   502.5079       77621.108    
    547000   501.21417      77208.431    
    548000   490.66087      76942.108    
    549000   505.56755      77726.405    
    550000   504.71273      77502.687    
    551000   520.23935      77282.153    
    552000   506.62361      77157.292    
    553000   484.7732       77348.717    
    554000   484.07339      77420.423    
    555000   509.92841      77093.227    
    556000   484.25509      76993.335    
    557000   494.3045       77182.35     
    558000   514.86042      77146.491    
    559000   496.10163      76580.305    
    560000   492.51269      77208.986    
    561000   515.28198      76855.666    
    562000   502.52238      77363.661    
    563000   491.67968      77238.085    
    564000   501.2002       76967.16     
    565000   488.87446      77531.165    
    566000   502.25265      76941.472    
    567000   493.55175      77149.954    
    568000   509.57283      77386.406    
    569000   473.89263      77188.564    
    570000   519.00761      76960.846    
    571000   503.80025      77367.38     
    572000   491.03828      76932.903    
    573000   506.10175      77199.801    
    574000   497.52845      77258.096    
    575000   518.68469      76885.158    
    576000   502.46499      77758.666    
    577000   497.22838      77023.275    
    578000   475.35988      77278.681    
    579000   490.41425      77755.203    
    580000   503.56519      77478.608    
    581000   502.44082      77210.794    
    582000   489.73266      76847.226    
    583000   509.60286      77387.971    
    584000   502.50261      77307.899    
    585000   534.69586      76844.596    
    586000   493.06594      76938.246    
    587000   485.84447      77193.753    
    588000   512.71151      77404.683    
    589000   511.50582      77327.797    
    590000   494.74614      76765.332    
    591000   498.5372       77036.348    
    592000   500.753        77558.037    
    593000   502.47744      76615.259    
    594000   495.86607      77164.104    
    595000   509.71373      77627.696    
    596000   506.68766      76925.679    
    597000   490.83409      76856.906    
    598000   499.17744      77336.059    
    599000   503.53682      77243.517    
    600000   494.64803      77119.118    
Loop time of 267.491 on 8 procs for 600000 steps with 1520 atoms

Performance: 193.801 ns/day, 0.124 hours/ns, 2243.067 timesteps/s, 3.409 Matom-step/s
99.7% CPU use with 8 MPI tasks x no OpenMP threads

MPI task timing breakdown:
Section |  min time  |  avg time  |  max time  |%varavg| %total
---------------------------------------------------------------
Pair    | 114.86     | 117.61     | 119.98     |  17.5 | 43.97
Bond    | 42.751     | 43.18      | 43.691     |   6.4 | 16.14
Neigh   | 17.074     | 17.244     | 17.417     |   2.7 |  6.45
Comm    | 65.285     | 68.49      | 71.952     |  33.0 | 25.60
Output  | 0.0072974  | 0.0079772  | 0.010138   |   1.0 |  0.00
Modify  | 17.797     | 18.378     | 18.888     |  11.8 |  6.87
Other   |            | 2.583      |            |       |  0.97

Nlocal:            190 ave         196 max         185 min
Histogram: 1 2 1 1 0 0 0 1 0 2
Nghost:        2622.38 ave        2630 max        2614 min
Histogram: 1 1 0 1 1 0 1 1 1 1
Neighs:        21182.8 ave       21994 max       20555 min
Histogram: 1 2 2 0 0 0 0 1 1 1

Total # of neighbors = 169462
Ave neighs/atom = 111.48816
Ave special neighs/atom = 6.7157895
Neighbor list builds = 18245
Dangerous builds = 0

unfix           1

print "All done!"
All done!
clear
next t
jump in.IRMOF-10
Total wall time: 0:34:47
